DF-ISE text

# filename: dot1_50x13_phase3_msh.grd
# written by the library Delaunay
Info {
version     =  1
type        = grid
dimension   =  3
nb_vertices =  5293
nb_edges    =  23303
nb_faces    =  30690
nb_elements =  12980
nb_regions  =  3
regions     = [ "substrate" "anode" "cathode" ]
materials     = [ Silicon Contact Contact ]
 }
Data {
CoordSystem {
translate = [  0  0  0 ]
transform = [  1  0  0  0  1  0  0  0  1 ]
 }
Vertices (  5293) {
 0 0 0
 0.7812500000000001 0 0
 0 3.125 0
 0 0 1.5625
 0.7812500000000001 3.125 0
 0.7812500000000001 0 1.5625
 0 3.125 1.5625
 0.7812500000000001 3.125 1.5625
 1.171875 0 0
 1.171875 3.125 0
 1.171875 0 1.5625
 1.171875 3.125 1.5625
 1.5625 0 0
 1.5625 3.125 0
 1.5625 0 1.5625
 1.5625 3.125 1.5625
 1.953125 0 0
 1.953125 3.125 0
 1.953125 0 1.5625
 1.953125 3.125 1.5625
 2.34375 0 0
 2.34375 3.125 0
 2.34375 0 1.5625
 2.34375 3.125 1.5625
 2.734375 0 0
 2.734375 3.125 0
 2.734375 0 1.5625
 2.734375 3.125 1.5625
 3.125 0 0
 3.125 3.125 0
 3.125 0 1.5625
 3.125 3.125 1.5625
 0 0 3.125
 0.7812500000000001 0 3.125
 0 3.125 3.125
 0.7812500000000001 3.125 3.125
 1.171875 0 3.125
 1.171875 3.125 3.125
 1.5625 0 3.125
 1.5625 3.125 3.125
 1.953125 0 3.125
 1.953125 3.125 3.125
 2.34375 0 3.125
 2.34375 3.125 3.125
 2.734375 0 3.125
 2.734375 3.125 3.125
 3.125 0 3.125
 3.125 3.125 3.125
 6.250000000000001 0 0
 6.250000000000001 3.125 0
 6.250000000000001 0 1.5625
 6.250000000000001 3.125 1.5625
 6.250000000000001 0 3.125
 6.250000000000001 3.125 3.125
 0 6.250000000000001 0
 0.7812500000000001 6.250000000000001 0
 0 6.250000000000001 1.5625
 0.7812500000000001 6.250000000000001 1.5625
 1.171875 6.250000000000001 0
 1.171875 6.250000000000001 1.5625
 1.5625 6.250000000000001 0
 1.5625 6.250000000000001 1.5625
 1.953125 6.250000000000001 0
 1.953125 6.250000000000001 1.5625
 2.34375 6.250000000000001 0
 2.34375 6.250000000000001 1.5625
 2.734375 6.250000000000001 0
 2.734375 6.250000000000001 1.5625
 3.125 6.250000000000001 0
 3.125 6.250000000000001 1.5625
 0 6.250000000000001 3.125
 0.7812500000000001 6.250000000000001 3.125
 1.171875 6.250000000000001 3.125
 1.5625 6.250000000000001 3.125
 1.953125 6.250000000000001 3.125
 2.34375 6.250000000000001 3.125
 2.734375 6.250000000000001 3.125
 3.125 6.250000000000001 3.125
 6.250000000000001 6.250000000000001 0
 6.250000000000001 6.250000000000001 1.5625
 6.250000000000001 6.250000000000001 3.125
 0 0 4.687500000000001
 0.7812500000000001 0 4.687500000000001
 0 3.125 4.687500000000001
 0.7812500000000001 3.125 4.687500000000001
 1.171875 0 4.687500000000001
 1.171875 3.125 4.687500000000001
 1.5625 0 4.687500000000001
 1.5625 3.125 4.687500000000001
 1.953125 0 4.687500000000001
 1.953125 3.125 4.687500000000001
 2.34375 0 4.687500000000001
 2.34375 3.125 4.687500000000001
 2.734375 0 4.687500000000001
 2.734375 3.125 4.687500000000001
 3.125 0 4.687500000000001
 3.125 3.125 4.687500000000001
 0 0 6.250000000000001
 0.7812500000000001 0 6.250000000000001
 0 3.125 6.250000000000001
 0.7812500000000001 3.125 6.250000000000001
 1.171875 0 6.250000000000001
 1.171875 3.125 6.250000000000001
 1.5625 0 6.250000000000001
 1.5625 3.125 6.250000000000001
 1.953125 0 6.250000000000001
 1.953125 3.125 6.250000000000001
 2.34375 0 6.250000000000001
 2.34375 3.125 6.250000000000001
 2.734375 0 6.250000000000001
 2.734375 3.125 6.250000000000001
 3.125 0 6.250000000000001
 3.125 3.125 6.250000000000001
 6.250000000000001 0 4.687500000000001
 6.250000000000001 3.125 4.687500000000001
 6.250000000000001 0 6.250000000000001
 6.250000000000001 3.125 6.250000000000001
 0 6.250000000000001 4.687500000000001
 0.7812500000000001 6.250000000000001 4.687500000000001
 1.171875 6.250000000000001 4.687500000000001
 1.5625 6.250000000000001 4.687500000000001
 1.953125 6.250000000000001 4.687500000000001
 2.34375 6.250000000000001 4.687500000000001
 2.734375 6.250000000000001 4.687500000000001
 3.125 6.250000000000001 4.687500000000001
 0 6.250000000000001 6.250000000000001
 0.7812500000000001 6.250000000000001 6.250000000000001
 1.171875 6.250000000000001 6.250000000000001
 1.5625 6.250000000000001 6.250000000000001
 1.953125 6.250000000000001 6.250000000000001
 2.34375 6.250000000000001 6.250000000000001
 2.734375 6.250000000000001 6.250000000000001
 3.125 6.250000000000001 6.250000000000001
 6.250000000000001 6.250000000000001 4.687500000000001
 6.250000000000001 6.250000000000001 6.250000000000001
 9.375000000000002 0 0
 9.375000000000002 3.125 0
 9.375000000000002 0 1.5625
 9.375000000000002 3.125 1.5625
 9.375000000000002 0 3.125
 9.375000000000002 3.125 3.125
 12.5 0 0
 12.5 3.125 0
 12.5 0 1.5625
 12.5 3.125 1.5625
 12.5 0 3.125
 12.5 3.125 3.125
 9.375000000000002 6.250000000000001 0
 9.375000000000002 6.250000000000001 1.5625
 9.375000000000002 6.250000000000001 3.125
 12.5 6.250000000000001 0
 12.5 6.250000000000001 1.5625
 12.5 6.250000000000001 3.125
 9.375000000000002 0 4.687500000000001
 9.375000000000002 3.125 4.687500000000001
 9.375000000000002 0 6.250000000000001
 9.375000000000002 3.125 6.250000000000001
 12.5 0 4.687500000000001
 12.5 3.125 4.687500000000001
 12.5 0 6.250000000000001
 12.5 3.125 6.250000000000001
 9.375000000000002 6.250000000000001 4.687500000000001
 9.375000000000002 6.250000000000001 6.250000000000001
 12.5 6.250000000000001 4.687500000000001
 12.5 6.250000000000001 6.250000000000001
 0 9.375000000000002 0
 0.7812500000000001 9.375000000000002 0
 0 9.375000000000002 1.5625
 0.7812500000000001 9.375000000000002 1.5625
 1.171875 9.375000000000002 0
 1.171875 9.375000000000002 1.5625
 1.5625 9.375000000000002 0
 1.5625 9.375000000000002 1.5625
 1.953125 9.375000000000002 0
 1.953125 9.375000000000002 1.5625
 2.34375 9.375000000000002 0
 2.34375 9.375000000000002 1.5625
 2.734375 9.375000000000002 0
 2.734375 9.375000000000002 1.5625
 3.125 9.375000000000002 0
 3.125 9.375000000000002 1.5625
 0 9.375000000000002 3.125
 0.7812500000000001 9.375000000000002 3.125
 1.171875 9.375000000000002 3.125
 1.5625 9.375000000000002 3.125
 1.953125 9.375000000000002 3.125
 2.34375 9.375000000000002 3.125
 2.734375 9.375000000000002 3.125
 3.125 9.375000000000002 3.125
 6.250000000000001 9.375000000000002 0
 6.250000000000001 9.375000000000002 1.5625
 6.250000000000001 9.375000000000002 3.125
 0 12.5 0
 0.7812500000000001 12.5 0
 0 12.5 1.5625
 0.7812500000000001 12.5 1.5625
 1.171875 12.5 0
 1.171875 12.5 1.5625
 1.5625 12.5 0
 1.5625 12.5 1.5625
 1.953125 12.5 0
 1.953125 12.5 1.5625
 2.34375 12.5 0
 2.34375 12.5 1.5625
 2.734375 12.5 0
 2.734375 12.5 1.5625
 3.125 12.5 0
 3.125 12.5 1.5625
 0 12.5 3.125
 0.7812500000000001 12.5 3.125
 1.171875 12.5 3.125
 1.5625 12.5 3.125
 1.953125 12.5 3.125
 2.34375 12.5 3.125
 2.734375 12.5 3.125
 3.125 12.5 3.125
 6.250000000000001 12.5 0
 6.250000000000001 12.5 1.5625
 6.250000000000001 12.5 3.125
 0 9.375000000000002 4.687500000000001
 0.7812500000000001 9.375000000000002 4.687500000000001
 1.171875 9.375000000000002 4.687500000000001
 1.5625 9.375000000000002 4.687500000000001
 1.953125 9.375000000000002 4.687500000000001
 2.34375 9.375000000000002 4.687500000000001
 2.734375 9.375000000000002 4.687500000000001
 3.125 9.375000000000002 4.687500000000001
 0 9.375000000000002 6.250000000000001
 0.7812500000000001 9.375000000000002 6.250000000000001
 1.171875 9.375000000000002 6.250000000000001
 1.5625 9.375000000000002 6.250000000000001
 1.953125 9.375000000000002 6.250000000000001
 2.34375 9.375000000000002 6.250000000000001
 2.734375 9.375000000000002 6.250000000000001
 3.125 9.375000000000002 6.250000000000001
 6.250000000000001 9.375000000000002 4.687500000000001
 6.250000000000001 9.375000000000002 6.250000000000001
 0 12.5 4.687500000000001
 0.7812500000000001 12.5 4.687500000000001
 1.171875 12.5 4.687500000000001
 1.5625 12.5 4.687500000000001
 1.953125 12.5 4.687500000000001
 2.34375 12.5 4.687500000000001
 2.734375 12.5 4.687500000000001
 3.125 12.5 4.687500000000001
 0 12.5 6.250000000000001
 0.7812500000000001 12.5 6.250000000000001
 1.171875 12.5 6.250000000000001
 1.5625 12.5 6.250000000000001
 1.953125 12.5 6.250000000000001
 2.34375 12.5 6.250000000000001
 2.734375 12.5 6.250000000000001
 3.125 12.5 6.250000000000001
 6.250000000000001 12.5 4.687500000000001
 6.250000000000001 12.5 6.250000000000001
 9.375000000000002 9.375000000000002 0
 9.375000000000002 9.375000000000002 1.5625
 9.375000000000002 9.375000000000002 3.125
 12.5 9.375000000000002 0
 12.5 9.375000000000002 1.5625
 12.5 9.375000000000002 3.125
 9.375000000000002 12.5 0
 9.375000000000002 12.5 1.5625
 9.375000000000002 12.5 3.125
 12.5 12.5 0
 12.5 12.5 1.5625
 12.5 12.5 3.125
 9.375000000000002 9.375000000000002 4.687500000000001
 9.375000000000002 9.375000000000002 6.250000000000001
 12.5 9.375000000000002 4.687500000000001
 12.5 9.375000000000002 6.250000000000001
 9.375000000000002 12.5 4.687500000000001
 9.375000000000002 12.5 6.250000000000001
 12.5 12.5 4.687500000000001
 12.5 12.5 6.250000000000001
 15.625 0 0
 15.625 3.125 0
 15.625 0 1.5625
 15.625 3.125 1.5625
 15.625 0 3.125
 15.625 3.125 3.125
 18.75 0 0
 18.75 3.125 0
 18.75 0 1.5625
 18.75 3.125 1.5625
 18.75 0 3.125
 18.75 3.125 3.125
 15.625 6.250000000000001 0
 15.625 6.250000000000001 1.5625
 15.625 6.250000000000001 3.125
 18.75 6.250000000000001 0
 18.75 6.250000000000001 1.5625
 18.75 6.250000000000001 3.125
 15.625 0 4.687500000000001
 15.625 3.125 4.687500000000001
 15.625 0 6.250000000000001
 15.625 3.125 6.250000000000001
 18.75 0 4.687500000000001
 18.75 3.125 4.687500000000001
 18.75 0 6.250000000000001
 18.75 3.125 6.250000000000001
 15.625 6.250000000000001 4.687500000000001
 15.625 6.250000000000001 6.250000000000001
 18.75 6.250000000000001 4.687500000000001
 18.75 6.250000000000001 6.250000000000001
 25 0 0
 25 3.125 0
 25 0 1.5625
 25 3.125 1.5625
 25 0 3.125
 25 3.125 3.125
 25 6.250000000000001 0
 25 6.250000000000001 1.5625
 25 6.250000000000001 3.125
 25 0 4.687500000000001
 25 3.125 4.687500000000001
 25 0 6.250000000000001
 25 3.125 6.250000000000001
 25 6.250000000000001 4.687500000000001
 25 6.250000000000001 6.250000000000001
 15.625 9.375000000000002 0
 15.625 9.375000000000002 1.5625
 15.625 9.375000000000002 3.125
 18.75 9.375000000000002 0
 18.75 9.375000000000002 1.5625
 18.75 9.375000000000002 3.125
 15.625 12.5 0
 15.625 12.5 1.5625
 15.625 12.5 3.125
 18.75 12.5 0
 18.75 12.5 1.5625
 18.75 12.5 3.125
 15.625 9.375000000000002 4.687500000000001
 15.625 9.375000000000002 6.250000000000001
 18.75 9.375000000000002 4.687500000000001
 18.75 9.375000000000002 6.250000000000001
 15.625 12.5 4.687500000000001
 15.625 12.5 6.250000000000001
 18.75 12.5 4.687500000000001
 18.75 12.5 6.250000000000001
 25 9.375000000000002 0
 25 9.375000000000002 1.5625
 25 9.375000000000002 3.125
 25 12.5 0
 25 12.5 1.5625
 25 12.5 3.125
 25 9.375000000000002 4.687500000000001
 25 9.375000000000002 6.250000000000001
 25 12.5 4.687500000000001
 25 12.5 6.250000000000001
 31.25000000000001 0 0
 31.25000000000001 3.125 0
 31.25000000000001 0 1.5625
 31.25000000000001 3.125 1.5625
 31.25000000000001 0 3.125
 31.25000000000001 3.125 3.125
 31.25000000000001 6.250000000000001 0
 31.25000000000001 6.250000000000001 1.5625
 31.25000000000001 6.250000000000001 3.125
 31.25000000000001 0 4.687500000000001
 31.25000000000001 3.125 4.687500000000001
 31.25000000000001 0 6.250000000000001
 31.25000000000001 3.125 6.250000000000001
 31.25000000000001 6.250000000000001 4.687500000000001
 31.25000000000001 6.250000000000001 6.250000000000001
 37.50000000000001 0 0
 37.50000000000001 3.125 0
 37.50000000000001 0 1.5625
 37.50000000000001 3.125 1.5625
 37.50000000000001 0 3.125
 37.50000000000001 3.125 3.125
 37.50000000000001 6.250000000000001 0
 37.50000000000001 6.250000000000001 1.5625
 37.50000000000001 6.250000000000001 3.125
 37.50000000000001 0 4.687500000000001
 37.50000000000001 3.125 4.687500000000001
 37.50000000000001 0 6.250000000000001
 37.50000000000001 3.125 6.250000000000001
 37.50000000000001 6.250000000000001 4.687500000000001
 37.50000000000001 6.250000000000001 6.250000000000001
 31.25000000000001 9.375000000000002 0
 31.25000000000001 9.375000000000002 1.5625
 31.25000000000001 9.375000000000002 3.125
 31.25000000000001 12.5 0
 31.25000000000001 12.5 1.5625
 31.25000000000001 12.5 3.125
 31.25000000000001 9.375000000000002 4.687500000000001
 31.25000000000001 9.375000000000002 6.250000000000001
 31.25000000000001 12.5 4.687500000000001
 31.25000000000001 12.5 6.250000000000001
 37.50000000000001 9.375000000000002 0
 37.50000000000001 9.375000000000002 1.5625
 37.50000000000001 9.375000000000002 3.125
 37.50000000000001 12.5 0
 37.50000000000001 12.5 1.5625
 37.50000000000001 12.5 3.125
 37.50000000000001 9.375000000000002 4.687500000000001
 37.50000000000001 9.375000000000002 6.250000000000001
 37.50000000000001 12.5 4.687500000000001
 37.50000000000001 12.5 6.250000000000001
 43.75000000000001 0 0
 43.75000000000001 3.125 0
 43.75000000000001 0 1.5625
 43.75000000000001 3.125 1.5625
 43.75000000000001 0 3.125
 43.75000000000001 3.125 3.125
 43.75000000000001 6.250000000000001 0
 43.75000000000001 6.250000000000001 1.5625
 43.75000000000001 6.250000000000001 3.125
 43.75000000000001 0 4.687500000000001
 43.75000000000001 3.125 4.687500000000001
 43.75000000000001 0 6.250000000000001
 43.75000000000001 3.125 6.250000000000001
 43.75000000000001 6.250000000000001 4.687500000000001
 43.75000000000001 6.250000000000001 6.250000000000001
 50.00000000000001 0 0
 50.00000000000001 3.125 0
 50.00000000000001 0 1.5625
 50.00000000000001 3.125 1.5625
 50.00000000000001 0 3.125
 50.00000000000001 3.125 3.125
 50.00000000000001 6.250000000000001 0
 50.00000000000001 6.250000000000001 1.5625
 50.00000000000001 6.250000000000001 3.125
 50.00000000000001 0 4.687500000000001
 50.00000000000001 3.125 4.687500000000001
 50.00000000000001 0 6.250000000000001
 50.00000000000001 3.125 6.250000000000001
 50.00000000000001 6.250000000000001 4.687500000000001
 50.00000000000001 6.250000000000001 6.250000000000001
 43.75000000000001 9.375000000000002 0
 43.75000000000001 9.375000000000002 1.5625
 43.75000000000001 9.375000000000002 3.125
 43.75000000000001 12.5 0
 43.75000000000001 12.5 1.5625
 43.75000000000001 12.5 3.125
 43.75000000000001 9.375000000000002 4.687500000000001
 43.75000000000001 9.375000000000002 6.250000000000001
 43.75000000000001 12.5 4.687500000000001
 43.75000000000001 12.5 6.250000000000001
 50.00000000000001 9.375000000000002 0
 50.00000000000001 9.375000000000002 1.5625
 50.00000000000001 9.375000000000002 3.125
 50.00000000000001 12.5 0
 50.00000000000001 12.5 1.5625
 50.00000000000001 12.5 3.125
 50.00000000000001 9.375000000000002 4.687500000000001
 50.00000000000001 9.375000000000002 6.250000000000001
 50.00000000000001 12.5 4.687500000000001
 50.00000000000001 12.5 6.250000000000001
 0 15.625 0
 0.7812500000000001 15.625 0
 0 15.625 1.5625
 0.7812500000000001 15.625 1.5625
 1.171875 15.625 0
 1.171875 15.625 1.5625
 1.5625 15.625 0
 1.5625 15.625 1.5625
 1.953125 15.625 0
 1.953125 15.625 1.5625
 2.34375 15.625 0
 2.34375 15.625 1.5625
 2.734375 15.625 0
 2.734375 15.625 1.5625
 3.125 15.625 0
 3.125 15.625 1.5625
 0 15.625 3.125
 0.7812500000000001 15.625 3.125
 1.171875 15.625 3.125
 1.5625 15.625 3.125
 1.953125 15.625 3.125
 2.34375 15.625 3.125
 2.734375 15.625 3.125
 3.125 15.625 3.125
 6.250000000000001 15.625 0
 6.250000000000001 15.625 1.5625
 6.250000000000001 15.625 3.125
 0 18.75 0
 0.7812500000000001 18.75 0
 0 18.75 1.5625
 0.7812500000000001 18.75 1.5625
 1.171875 18.75 0
 1.171875 18.75 1.5625
 1.5625 18.75 0
 1.5625 18.75 1.5625
 1.953125 18.75 0
 1.953125 18.75 1.5625
 2.34375 18.75 0
 2.34375 18.75 1.5625
 2.734375 18.75 0
 2.734375 18.75 1.5625
 3.125 18.75 0
 3.125 18.75 1.5625
 0 18.75 3.125
 0.7812500000000001 18.75 3.125
 1.171875 18.75 3.125
 1.5625 18.75 3.125
 1.953125 18.75 3.125
 2.34375 18.75 3.125
 2.734375 18.75 3.125
 3.125 18.75 3.125
 6.250000000000001 18.75 0
 6.250000000000001 18.75 1.5625
 6.250000000000001 18.75 3.125
 0 15.625 4.687500000000001
 0.7812500000000001 15.625 4.687500000000001
 1.171875 15.625 4.687500000000001
 1.5625 15.625 4.687500000000001
 1.953125 15.625 4.687500000000001
 2.34375 15.625 4.687500000000001
 2.734375 15.625 4.687500000000001
 3.125 15.625 4.687500000000001
 0 15.625 6.250000000000001
 0.7812500000000001 15.625 6.250000000000001
 1.171875 15.625 6.250000000000001
 1.5625 15.625 6.250000000000001
 1.953125 15.625 6.250000000000001
 2.34375 15.625 6.250000000000001
 2.734375 15.625 6.250000000000001
 3.125 15.625 6.250000000000001
 6.250000000000001 15.625 4.687500000000001
 6.250000000000001 15.625 6.250000000000001
 0 18.75 4.687500000000001
 0.7812500000000001 18.75 4.687500000000001
 1.171875 18.75 4.687500000000001
 1.5625 18.75 4.687500000000001
 1.953125 18.75 4.687500000000001
 2.34375 18.75 4.687500000000001
 2.734375 18.75 4.687500000000001
 3.125 18.75 4.687500000000001
 0 18.75 6.250000000000001
 0.7812500000000001 18.75 6.250000000000001
 1.171875 18.75 6.250000000000001
 1.5625 18.75 6.250000000000001
 1.953125 18.75 6.250000000000001
 2.34375 18.75 6.250000000000001
 2.734375 18.75 6.250000000000001
 3.125 18.75 6.250000000000001
 6.250000000000001 18.75 4.687500000000001
 6.250000000000001 18.75 6.250000000000001
 9.375000000000002 15.625 0
 9.375000000000002 15.625 1.5625
 9.375000000000002 15.625 3.125
 12.5 15.625 0
 12.5 15.625 1.5625
 12.5 15.625 3.125
 9.375000000000002 18.75 0
 9.375000000000002 18.75 1.5625
 9.375000000000002 18.75 3.125
 12.5 18.75 0
 12.5 18.75 1.5625
 12.5 18.75 3.125
 9.375000000000002 15.625 4.687500000000001
 9.375000000000002 15.625 6.250000000000001
 12.5 15.625 4.687500000000001
 12.5 15.625 6.250000000000001
 9.375000000000002 18.75 4.687500000000001
 9.375000000000002 18.75 6.250000000000001
 12.5 18.75 4.687500000000001
 12.5 18.75 6.250000000000001
 0 21.875 0
 0.7812500000000001 21.875 0
 0 21.875 1.5625
 0.7812500000000001 21.875 1.5625
 1.171875 21.875 0
 1.171875 21.875 1.5625
 1.5625 21.875 0
 1.5625 21.875 1.5625
 1.953125 21.875 0
 1.953125 21.875 1.5625
 2.34375 21.875 0
 2.34375 21.875 1.5625
 2.734375 21.875 0
 2.734375 21.875 1.5625
 3.125 21.875 0
 3.125 21.875 1.5625
 0 21.875 3.125
 0.7812500000000001 21.875 3.125
 1.171875 21.875 3.125
 1.5625 21.875 3.125
 1.953125 21.875 3.125
 2.34375 21.875 3.125
 2.734375 21.875 3.125
 3.125 21.875 3.125
 6.250000000000001 21.875 0
 6.250000000000001 21.875 1.5625
 6.250000000000001 21.875 3.125
 0 25 0
 0.7812500000000001 25 0
 0 25 1.5625
 0.7812500000000001 25 1.5625
 1.171875 25 0
 1.171875 25 1.5625
 1.5625 25 0
 1.5625 25 1.5625
 1.953125 25 0
 1.953125 25 1.5625
 2.34375 25 0
 2.34375 25 1.5625
 2.734375 25 0
 2.734375 25 1.5625
 3.125 25 0
 3.125 25 1.5625
 0 25 3.125
 0.7812500000000001 25 3.125
 1.171875 25 3.125
 1.5625 25 3.125
 1.953125 25 3.125
 2.34375 25 3.125
 2.734375 25 3.125
 3.125 25 3.125
 6.250000000000001 25 0
 6.250000000000001 25 1.5625
 6.250000000000001 25 3.125
 0 21.875 4.687500000000001
 0.7812500000000001 21.875 4.687500000000001
 1.171875 21.875 4.687500000000001
 1.5625 21.875 4.687500000000001
 1.953125 21.875 4.687500000000001
 2.34375 21.875 4.687500000000001
 2.734375 21.875 4.687500000000001
 3.125 21.875 4.687500000000001
 0 21.875 6.250000000000001
 0.7812500000000001 21.875 6.250000000000001
 1.171875 21.875 6.250000000000001
 1.5625 21.875 6.250000000000001
 1.953125 21.875 6.250000000000001
 2.34375 21.875 6.250000000000001
 2.734375 21.875 6.250000000000001
 3.125 21.875 6.250000000000001
 6.250000000000001 21.875 4.687500000000001
 6.250000000000001 21.875 6.250000000000001
 0 25 4.687500000000001
 0.7812500000000001 25 4.687500000000001
 1.171875 25 4.687500000000001
 1.5625 25 4.687500000000001
 1.953125 25 4.687500000000001
 2.34375 25 4.687500000000001
 2.734375 25 4.687500000000001
 3.125 25 4.687500000000001
 0 25 6.250000000000001
 0.7812500000000001 25 6.250000000000001
 1.171875 25 6.250000000000001
 1.5625 25 6.250000000000001
 1.953125 25 6.250000000000001
 2.34375 25 6.250000000000001
 2.734375 25 6.250000000000001
 3.125 25 6.250000000000001
 6.250000000000001 25 4.687500000000001
 6.250000000000001 25 6.250000000000001
 9.375000000000002 21.875 0
 9.375000000000002 21.875 1.5625
 9.375000000000002 21.875 3.125
 12.5 21.875 0
 12.5 21.875 1.5625
 12.5 21.875 3.125
 9.375000000000002 25 0
 9.375000000000002 25 1.5625
 9.375000000000002 25 3.125
 12.5 25 0
 12.5 25 1.5625
 12.5 25 3.125
 9.375000000000002 21.875 4.687500000000001
 9.375000000000002 21.875 6.250000000000001
 12.5 21.875 4.687500000000001
 12.5 21.875 6.250000000000001
 9.375000000000002 25 4.687500000000001
 9.375000000000002 25 6.250000000000001
 12.5 25 4.687500000000001
 12.5 25 6.250000000000001
 15.625 15.625 0
 15.625 15.625 1.5625
 15.625 15.625 3.125
 18.75 15.625 0
 18.75 15.625 1.5625
 18.75 15.625 3.125
 15.625 18.75 0
 15.625 18.75 1.5625
 15.625 18.75 3.125
 18.75 18.75 0
 18.75 18.75 1.5625
 18.75 18.75 3.125
 15.625 15.625 4.687500000000001
 15.625 15.625 6.250000000000001
 18.75 15.625 4.687500000000001
 18.75 15.625 6.250000000000001
 15.625 18.75 4.687500000000001
 15.625 18.75 6.250000000000001
 18.75 18.75 4.687500000000001
 18.75 18.75 6.250000000000001
 25 15.625 0
 25 15.625 1.5625
 25 15.625 3.125
 25 18.75 0
 25 18.75 1.5625
 25 18.75 3.125
 25 15.625 4.687500000000001
 25 15.625 6.250000000000001
 25 18.75 4.687500000000001
 25 18.75 6.250000000000001
 15.625 21.875 0
 15.625 21.875 1.5625
 15.625 21.875 3.125
 18.75 21.875 0
 18.75 21.875 1.5625
 18.75 21.875 3.125
 15.625 25 0
 15.625 25 1.5625
 15.625 25 3.125
 18.75 25 0
 18.75 25 1.5625
 18.75 25 3.125
 15.625 21.875 4.687500000000001
 15.625 21.875 6.250000000000001
 18.75 21.875 4.687500000000001
 18.75 21.875 6.250000000000001
 15.625 25 4.687500000000001
 15.625 25 6.250000000000001
 18.75 25 4.687500000000001
 18.75 25 6.250000000000001
 25 21.875 0
 25 21.875 1.5625
 25 21.875 3.125
 25 25 0
 25 25 1.5625
 25 25 3.125
 25 21.875 4.687500000000001
 25 21.875 6.250000000000001
 25 25 4.687500000000001
 25 25 6.250000000000001
 31.25000000000001 15.625 0
 31.25000000000001 15.625 1.5625
 31.25000000000001 15.625 3.125
 31.25000000000001 18.75 0
 31.25000000000001 18.75 1.5625
 31.25000000000001 18.75 3.125
 31.25000000000001 15.625 4.687500000000001
 31.25000000000001 15.625 6.250000000000001
 31.25000000000001 18.75 4.687500000000001
 31.25000000000001 18.75 6.250000000000001
 37.50000000000001 15.625 0
 37.50000000000001 15.625 1.5625
 37.50000000000001 15.625 3.125
 37.50000000000001 18.75 0
 37.50000000000001 18.75 1.5625
 37.50000000000001 18.75 3.125
 37.50000000000001 15.625 4.687500000000001
 37.50000000000001 15.625 6.250000000000001
 37.50000000000001 18.75 4.687500000000001
 37.50000000000001 18.75 6.250000000000001
 31.25000000000001 21.875 0
 31.25000000000001 21.875 1.5625
 31.25000000000001 21.875 3.125
 31.25000000000001 25 0
 31.25000000000001 25 1.5625
 31.25000000000001 25 3.125
 31.25000000000001 21.875 4.687500000000001
 31.25000000000001 21.875 6.250000000000001
 31.25000000000001 25 4.687500000000001
 31.25000000000001 25 6.250000000000001
 37.50000000000001 21.875 0
 37.50000000000001 21.875 1.5625
 37.50000000000001 21.875 3.125
 37.50000000000001 25 0
 37.50000000000001 25 1.5625
 37.50000000000001 25 3.125
 37.50000000000001 21.875 4.687500000000001
 37.50000000000001 21.875 6.250000000000001
 37.50000000000001 25 4.687500000000001
 37.50000000000001 25 6.250000000000001
 43.75000000000001 15.625 0
 43.75000000000001 15.625 1.5625
 43.75000000000001 15.625 3.125
 43.75000000000001 18.75 0
 43.75000000000001 18.75 1.5625
 43.75000000000001 18.75 3.125
 43.75000000000001 15.625 4.687500000000001
 43.75000000000001 15.625 6.250000000000001
 43.75000000000001 18.75 4.687500000000001
 43.75000000000001 18.75 6.250000000000001
 50.00000000000001 15.625 0
 50.00000000000001 15.625 1.5625
 50.00000000000001 15.625 3.125
 50.00000000000001 18.75 0
 50.00000000000001 18.75 1.5625
 50.00000000000001 18.75 3.125
 50.00000000000001 15.625 4.687500000000001
 50.00000000000001 15.625 6.250000000000001
 50.00000000000001 18.75 4.687500000000001
 50.00000000000001 18.75 6.250000000000001
 43.75000000000001 21.875 0
 43.75000000000001 21.875 1.5625
 43.75000000000001 21.875 3.125
 43.75000000000001 25 0
 43.75000000000001 25 1.5625
 43.75000000000001 25 3.125
 43.75000000000001 21.875 4.687500000000001
 43.75000000000001 21.875 6.250000000000001
 43.75000000000001 25 4.687500000000001
 43.75000000000001 25 6.250000000000001
 50.00000000000001 21.875 0
 50.00000000000001 21.875 1.5625
 50.00000000000001 21.875 3.125
 50.00000000000001 25 0
 50.00000000000001 25 1.5625
 50.00000000000001 25 3.125
 50.00000000000001 21.875 4.687500000000001
 50.00000000000001 21.875 6.250000000000001
 50.00000000000001 25 4.687500000000001
 50.00000000000001 25 6.250000000000001
 56.25000000000001 0 0
 56.25000000000001 3.125 0
 56.25000000000001 0 1.5625
 56.25000000000001 3.125 1.5625
 56.25000000000001 0 3.125
 56.25000000000001 3.125 3.125
 56.25000000000001 6.250000000000001 0
 56.25000000000001 6.250000000000001 1.5625
 56.25000000000001 6.250000000000001 3.125
 56.25000000000001 0 4.687500000000001
 56.25000000000001 3.125 4.687500000000001
 56.25000000000001 0 6.250000000000001
 56.25000000000001 3.125 6.250000000000001
 56.25000000000001 6.250000000000001 4.687500000000001
 56.25000000000001 6.250000000000001 6.250000000000001
 62.50000000000001 0 0
 62.50000000000001 3.125 0
 62.50000000000001 0 1.5625
 62.50000000000001 3.125 1.5625
 62.50000000000001 0 3.125
 62.50000000000001 3.125 3.125
 62.50000000000001 6.250000000000001 0
 62.50000000000001 6.250000000000001 1.5625
 62.50000000000001 6.250000000000001 3.125
 62.50000000000001 0 4.687500000000001
 62.50000000000001 3.125 4.687500000000001
 62.50000000000001 0 6.250000000000001
 62.50000000000001 3.125 6.250000000000001
 62.50000000000001 6.250000000000001 4.687500000000001
 62.50000000000001 6.250000000000001 6.250000000000001
 56.25000000000001 9.375000000000002 0
 56.25000000000001 9.375000000000002 1.5625
 56.25000000000001 9.375000000000002 3.125
 56.25000000000001 12.5 0
 56.25000000000001 12.5 1.5625
 56.25000000000001 12.5 3.125
 56.25000000000001 9.375000000000002 4.687500000000001
 56.25000000000001 9.375000000000002 6.250000000000001
 56.25000000000001 12.5 4.687500000000001
 56.25000000000001 12.5 6.250000000000001
 62.50000000000001 9.375000000000002 0
 62.50000000000001 9.375000000000002 1.5625
 62.50000000000001 9.375000000000002 3.125
 62.50000000000001 12.5 0
 62.50000000000001 12.5 1.5625
 62.50000000000001 12.5 3.125
 62.50000000000001 9.375000000000002 4.687500000000001
 62.50000000000001 9.375000000000002 6.250000000000001
 62.50000000000001 12.5 4.687500000000001
 62.50000000000001 12.5 6.250000000000001
 68.75000000000001 0 0
 68.75000000000001 3.125 0
 68.75000000000001 0 1.5625
 68.75000000000001 3.125 1.5625
 68.75000000000001 0 3.125
 68.75000000000001 3.125 3.125
 68.75000000000001 6.250000000000001 0
 68.75000000000001 6.250000000000001 1.5625
 68.75000000000001 6.250000000000001 3.125
 68.75000000000001 0 4.687500000000001
 68.75000000000001 3.125 4.687500000000001
 68.75000000000001 0 6.250000000000001
 68.75000000000001 3.125 6.250000000000001
 68.75000000000001 6.250000000000001 4.687500000000001
 68.75000000000001 6.250000000000001 6.250000000000001
 75.00000000000001 0 0
 75.00000000000001 3.125 0
 75.00000000000001 0 1.5625
 75.00000000000001 3.125 1.5625
 75.00000000000001 0 3.125
 75.00000000000001 3.125 3.125
 75.00000000000001 6.250000000000001 0
 75.00000000000001 6.250000000000001 1.5625
 75.00000000000001 6.250000000000001 3.125
 75.00000000000001 0 4.687500000000001
 75.00000000000001 3.125 4.687500000000001
 75.00000000000001 0 6.250000000000001
 75.00000000000001 3.125 6.250000000000001
 75.00000000000001 6.250000000000001 4.687500000000001
 75.00000000000001 6.250000000000001 6.250000000000001
 68.75000000000001 9.375000000000002 0
 68.75000000000001 9.375000000000002 1.5625
 68.75000000000001 9.375000000000002 3.125
 68.75000000000001 12.5 0
 68.75000000000001 12.5 1.5625
 68.75000000000001 12.5 3.125
 68.75000000000001 9.375000000000002 4.687500000000001
 68.75000000000001 9.375000000000002 6.250000000000001
 68.75000000000001 12.5 4.687500000000001
 68.75000000000001 12.5 6.250000000000001
 75.00000000000001 9.375000000000002 0
 75.00000000000001 9.375000000000002 1.5625
 75.00000000000001 9.375000000000002 3.125
 75.00000000000001 12.5 0
 75.00000000000001 12.5 1.5625
 75.00000000000001 12.5 3.125
 75.00000000000001 9.375000000000002 4.687500000000001
 75.00000000000001 9.375000000000002 6.250000000000001
 75.00000000000001 12.5 4.687500000000001
 75.00000000000001 12.5 6.250000000000001
 81.25000000000001 0 0
 81.25000000000001 3.125 0
 81.25000000000001 0 1.5625
 81.25000000000001 3.125 1.5625
 81.25000000000001 0 3.125
 81.25000000000001 3.125 3.125
 81.25000000000001 6.250000000000001 0
 81.25000000000001 6.250000000000001 1.5625
 81.25000000000001 6.250000000000001 3.125
 81.25000000000001 0 4.687500000000001
 81.25000000000001 3.125 4.687500000000001
 81.25000000000001 0 6.250000000000001
 81.25000000000001 3.125 6.250000000000001
 81.25000000000001 6.250000000000001 4.687500000000001
 81.25000000000001 6.250000000000001 6.250000000000001
 84.37500000000001 0 0
 84.37500000000001 1.5625 0
 84.37500000000001 0 1.5625
 84.37500000000001 3.125 0
 84.37500000000001 3.125 1.5625
 84.37500000000001 1.5625 1.5625
 84.37500000000001 0 3.125
 84.37500000000001 3.125 3.125
 84.37500000000001 1.5625 3.125
 87.50000000000001 0 0
 87.50000000000001 0 1.5625
 87.50000000000001 1.5625 0
 87.50000000000001 1.5625 1.5625
 87.50000000000001 3.125 0
 87.50000000000001 3.125 1.5625
 87.50000000000001 0 3.125
 87.50000000000001 1.5625 3.125
 87.50000000000001 3.125 3.125
 84.37500000000001 4.687500000000001 0
 84.37500000000001 6.250000000000001 0