DF-ISE text

Info {
  version    = 1.0
  type       = xyplot
  datasets   = [ "time"
        "anode OuterVoltage" "anode InnerVoltage" "anode DisplacementCurrent" "anode eCurrent" "anode hCurrent" "anode TotalCurrent" "anode Charge"
        "cathode OuterVoltage" "cathode InnerVoltage" "cathode DisplacementCurrent" "cathode eCurrent" "cathode hCurrent" "cathode TotalCurrent" "cathode Charge" ]
  functions = [ Time
        OuterVoltage InnerVoltage DisplacementCurrent eCurrent hCurrent TotalCurrent Charge
        OuterVoltage InnerVoltage DisplacementCurrent eCurrent hCurrent TotalCurrent Charge ]
  }

Data {
   0.00000000000000E+00
   0.00000000000000E+00   0.00000000000000E+00   0.00000000000000E+00   7.51656079093601E-22   4.03178393117041E-27   7.51660110877532E-22   9.15984726055745E-15
   0.00000000000000E+00   0.00000000000000E+00   0.00000000000000E+00  -7.51656084998972E-22  -4.02587795925878E-27  -7.51660110876932E-22  -9.15984726055745E-15

   0.00000000000000E+00
   0.00000000000000E+00   0.00000000000000E+00   0.00000000000000E+00  -3.08649092490015E-22  -3.99499193331713E-24  -3.12644084423332E-22   9.15937775067065E-15
   0.00000000000000E+00   0.00000000000000E+00   0.00000000000000E+00   3.08649090004252E-22   3.99499440108865E-24   3.12644084405341E-22  -9.15937775067067E-15

   5.00000000000000E-02
   0.00000000000000E+00   0.00000000000000E+00   0.00000000000000E+00   2.82229296585932E-16   4.57071211026621E-22   2.82229753657143E-16   9.20504052127349E-15
  -5.00000000000000E-03  -5.00000000000000E-03   0.00000000000000E+00   6.08404702614470E-22  -2.82230362061847E-16  -2.82229753657145E-16  -9.20504052127345E-15

   1.20555555555556E-01
   0.00000000000000E+00   0.00000000000000E+00   0.00000000000000E+00   6.37523439155710E-16   9.17007162150296E-22   6.37524356162872E-16   9.26935234266707E-15
  -1.20555555555556E-02  -1.20555555555556E-02   0.00000000000000E+00   3.31066599848716E-20  -6.37557462822854E-16  -6.37524356162869E-16  -9.26935234266708E-15

   2.20117283950617E-01
   0.00000000000000E+00   0.00000000000000E+00   0.00000000000000E+00   1.06909305434542E-15   9.05486966931204E-22   1.06909395983239E-15   9.35985865752139E-15
  -2.20117283950617E-02  -2.20117283950617E-02   0.00000000000000E+00   6.41260296020951E-19  -1.06973522012841E-15  -1.06909395983239E-15  -9.35985865752139E-15

   3.60609945130315E-01
   0.00000000000000E+00   0.00000000000000E+00   0.00000000000000E+00   1.56475553994914E-15  -4.63529490079558E-21   1.56475090465424E-15   9.48707246297428E-15
  -3.60609945130315E-02  -3.60609945130315E-02   0.00000000000000E+00   1.27433643873611E-17  -1.57749426904161E-15  -1.56475090465424E-15  -9.48707246297428E-15

   5.58860700350556E-01
   0.00000000000000E+00   0.00000000000000E+00   0.00000000000000E+00   2.16036589932311E-15   2.12840314069057E-21   2.16036802772626E-15   9.66546852986944E-15
  -5.58860700350556E-02  -5.58860700350556E-02   0.00000000000000E+00  -3.14723633037137E-21  -2.16036488048991E-15  -2.16036802772624E-15  -9.66546852986945E-15

   8.29803399151552E-01
   0.00000000000000E+00   0.00000000000000E+00   0.00000000000000E+00   2.80924165902259E-15   2.24955453120372E-21   2.80924390857712E-15   9.90639225411896E-15
  -8.29803399151552E-02  -8.29803399151552E-02   0.00000000000000E+00   1.06218928819981E-19  -2.80935012750593E-15  -2.80924390857711E-15  -9.90639225411897E-15

   1.00000000000000E+00
   0.00000000000000E+00   0.00000000000000E+00   0.00000000000000E+00   3.02790289160749E-15   2.22386677259908E-21   3.02790511547426E-15   1.00550626525480E-14
  -1.00000000000000E-01  -1.00000000000000E-01   0.00000000000000E+00   1.35731366868392E-16  -3.16363648234267E-15  -3.02790511547428E-15  -1.00550626525480E-14

   2.00000000000000E-02
   0.00000000000000E+00   0.00000000000000E+00   0.00000000000000E+00   2.93688114174034E-15  -9.90256662341372E-21   2.93687123917372E-15   1.02085978414841E-14
  -1.18000000000000E-01  -1.18000000000000E-01   0.00000000000000E+00   5.71618502178292E-16  -3.50848974135200E-15  -2.93687123917371E-15  -1.02085978414841E-14

   4.32888888888889E-02
   0.00000000000000E+00   0.00000000000000E+00   0.00000000000000E+00   3.88389027093359E-15   2.32026211883959E-21   3.88389259119571E-15   1.03796913841182E-14
  -1.38960000000000E-01  -1.38960000000000E-01   0.00000000000000E+00  -4.11928618397271E-21  -3.88388847190954E-15  -3.88389259119572E-15  -1.03796913841182E-14

   6.99934814814815E-02
   0.00000000000000E+00   0.00000000000000E+00   0.00000000000000E+00   4.29469916793980E-15   2.32282463427489E-21   4.29470149076444E-15   1.05592924840544E-14
  -1.62994133333333E-01  -1.62994133333333E-01   0.00000000000000E+00   7.38355367756926E-21  -4.29470887431810E-15  -4.29470149076443E-15  -1.05592924840544E-14

   1.00614747654321E-01
   0.00000000000000E+00   0.00000000000000E+00   0.00000000000000E+00   4.75355528970426E-15   2.30525918705910E-21   4.75355759496344E-15   1.07318407030961E-14
  -1.90553272888889E-01  -1.90553272888889E-01   0.00000000000000E+00   8.48091441671997E-19  -4.75440568640512E-15  -4.75355759496345E-15  -1.07318407030961E-14

   1.35727132865844E-01
   0.00000000000000E+00   0.00000000000000E+00   0.00000000000000E+00   5.26683623410613E-15   2.23434890771182E-21   5.26683846845504E-15   1.08758713662798E-14
  -2.22154419579259E-01  -2.22154419579259E-01   0.00000000000000E+00   4.81408857441965E-18  -5.27165255702945E-15  -5.26683846845503E-15  -1.08758713662798E-14

   1.75989334575056E-01
   0.00000000000000E+00   0.00000000000000E+00   0.00000000000000E+00   5.84564107920748E-15   2.27271795514990E-21   5.84564335192543E-15   1.09840007810756E-14
  -2.58390401117551E-01  -2.58390401117551E-01   0.00000000000000E+00   2.58590391733710E-18  -5.84822925584280E-15  -5.84564335192547E-15  -1.09840007810756E-14

   2.22156659201620E-01
   0.00000000000000E+00   0.00000000000000E+00   0.00000000000000E+00   6.49991140758927E-15   2.31264982694866E-21   6.49991372023910E-15   1.10719901377214E-14
  -2.99940993281458E-01  -2.99940993281458E-01   0.00000000000000E+00   2.62802316929559E-19  -6.50017652255603E-15  -6.49991372023910E-15  -1.10719901377213E-14

   2.75095191440080E-01
   0.00000000000000E+00   0.00000000000000E+00   0.00000000000000E+00   7.23887446942554E-15   2.32207891012706E-21   7.23887679150445E-15   1.11571897889420E-14
  -3.47585672296072E-01  -3.47585672296072E-01   0.00000000000000E+00   1.00981849921481E-19  -7.23897777335439E-15  -7.23887679150447E-15  -1.11571897889420E-14

   3.35798041740181E-01
   0.00000000000000E+00   0.00000000000000E+00   0.00000000000000E+00   7.95250623388737E-15   2.32503457981068E-21   7.95250855892195E-15   1.12468628689436E-14
  -4.02218237566162E-01  -4.02218237566162E-01   0.00000000000000E+00   4.68140323625659E-20  -7.95255537295429E-15  -7.95250855892192E-15  -1.12468628689436E-14

   4.05403976750963E-01
   0.00000000000000E+00   0.00000000000000E+00   0.00000000000000E+00   8.50673550563375E-15   2.32661497325447E-21   8.50673783224873E-15   1.13435326108042E-14
  -4.64863579075866E-01  -4.64863579075866E-01   0.00000000000000E+00  -3.63689109336487E-21  -8.50673419535763E-15  -8.50673783224872E-15  -1.13435326108042E-14

   4.83981343385357E-01
   0.00000000000000E+00   0.00000000000000E+00   0.00000000000000E+00   9.00610996959097E-15   2.30623290964267E-21   9.00611227582388E-15   1.14486501493841E-14
  -5.35583209046821E-01  -5.35583209046821E-01   0.00000000000000E+00   5.81844532487209E-17  -9.06429672907262E-15  -9.00611227582390E-15  -1.14486501493841E-14

   5.72686459497072E-01
   0.00000000000000E+00   0.00000000000000E+00   0.00000000000000E+00   9.98172571130298E-15   2.32714625350708E-21   9.98172803844924E-15   1.15648636995434E-14
  -6.15417813547365E-01  -6.15417813547365E-01   0.00000000000000E+00  -4.19975149278897E-22  -9.98172761847407E-15  -9.98172803844922E-15  -1.15648636995434E-14

   6.72824679463187E-01
   0.00000000000000E+00   0.00000000000000E+00   0.00000000000000E+00   1.12492747755048E-14   2.32036184141305E-21   1.12492770958666E-14   1.16906383329591E-14
  -7.05542211516868E-01  -7.05542211516868E-01   0.00000000000000E+00   6.02593493058167E-18  -1.12553030307972E-14  -1.12492770958666E-14  -1.16906383329591E-14

   7.87649838357665E-01
   0.00000000000000E+00   0.00000000000000E+00   0.00000000000000E+00   1.22131032615014E-14   2.32820627875568E-21   1.22131055897077E-14   1.18248866969859E-14
  -8.08884854521899E-01  -8.08884854521899E-01   0.00000000000000E+00  -4.75446888799912E-21  -1.22131008352389E-14  -1.22131055897078E-14  -1.18248866969859E-14

   9.15233348240419E-01
   0.00000000000000E+00   0.00000000000000E+00   0.00000000000000E+00   1.30194338258216E-14   2.32657605678138E-21   1.30194361523977E-14   1.19672833808796E-14
  -9.23710013416377E-01  -9.23710013416377E-01   0.00000000000000E+00   3.06185480494718E-18  -1.30224980072026E-14  -1.30194361523976E-14  -1.19672833808796E-14

   1.00000000000000E+00
   0.00000000000000E+00   0.00000000000000E+00   0.00000000000000E+00   1.38098487228647E-14   2.32907680393970E-21   1.38098510519415E-14   1.20600238205462E-14
  -1.00000000000000E+00  -1.00000000000000E+00   0.00000000000000E+00  -4.11763818386859E-21  -1.38098469343033E-14  -1.38098510519415E-14  -1.20600238205462E-14

   0.00000000000000E+00
   0.00000000000000E+00   0.00000000000000E+00   0.00000000000000E+00   1.38098491826183E-14   2.32961400238830E-21   1.38098515122323E-14   1.20600238204877E-14
  -1.00000000000000E+00  -1.00000000000000E+00   0.00000000000000E+00  -4.57744574575523E-21  -1.38098469347867E-14  -1.38098515122324E-14  -1.20600238204877E-14

   1.00000000000000E-01
   0.00000000000000E+00   0.00000000000000E+00   0.00000000000000E+00   1.70139462746296E-14   2.33768354114462E-21   1.70139486123131E-14   1.25009214687420E-14
  -1.40000000000000E+00  -1.40000000000000E+00   0.00000000000000E+00   2.12693814380433E-21  -1.70139507392514E-14  -1.70139486123133E-14  -1.25009214687420E-14

   2.32222222222222E-01
   0.00000000000000E+00   0.00000000000000E+00   0.00000000000000E+00   2.08316622015506E-14   2.31052347613347E-21   2.08316645120741E-14   1.30105164578122E-14
  -1.92888888888889E+00  -1.92888888888889E+00   0.00000000000000E+00   8.94024112684188E-22  -2.08316654060983E-14  -2.08316645120742E-14  -1.30105164578122E-14

   4.07049382716049E-01
   0.00000000000000E+00   0.00000000000000E+00   0.00000000000000E+00   2.54274154746571E-14   2.29376248221563E-21   2.54274177684196E-14   1.35971397205378E-14
  -2.62819753086420E+00  -2.62819753086420E+00   0.00000000000000E+00   4.76252741996621E-20  -2.54274653936938E-14  -2.54274177684196E-14  -1.35971397205378E-14

   6.30439643347051E-01
   0.00000000000000E+00   0.00000000000000E+00   0.00000000000000E+00   2.99182978271689E-14   2.33718795580553E-21   2.99183001643568E-14   1.42481272001042E-14
  -3.52175857338820E+00  -3.52175857338820E+00   0.00000000000000E+00  -4.49009033442079E-21  -2.99182956742665E-14  -2.99183001643568E-14  -1.42481272001041E-14

   9.05954298125286E-01
   0.00000000000000E+00   0.00000000000000E+00   0.00000000000000E+00   3.51925164893792E-14   2.33991075790420E-21   3.51925188292900E-14   1.49532189167894E-14
  -4.62381719250114E+00  -4.62381719250114E+00   0.00000000000000E+00  -4.68727110293830E-21  -3.51925141420189E-14  -3.51925188292900E-14  -1.49532189167895E-14

   1.00000000000000E+00
   0.00000000000000E+00   0.00000000000000E+00   0.00000000000000E+00   3.65753735087737E-14   2.32231874535627E-21   3.65753758310924E-14   1.51743440473099E-14
  -5.00000000000000E+00  -5.00000000000000E+00   0.00000000000000E+00   8.21083488656849E-18  -3.65835866659788E-14  -3.65753758310923E-14  -1.51743440473099E-14

   0.00000000000000E+00
   0.00000000000000E+00   0.00000000000000E+00   0.00000000000000E+00   3.65835889709327E-14   2.34113155279500E-21   3.65835913120643E-14   1.51743440394637E-14
  -5.00000000000000E+00  -5.00000000000000E+00   0.00000000000000E+00  -4.69379232144899E-21  -3.65835866182720E-14  -3.65835913120644E-14  -1.51743440394637E-14

   1.00000000000000E-01
   0.00000000000000E+00   0.00000000000000E+00   0.00000000000000E+00   3.75171183575347E-14   2.34119223603971E-21   3.75171206987270E-14   1.53297026553188E-14
  -5.27000000000000E+00  -5.27000000000000E+00   0.00000000000000E+00  -2.86491205969042E-21  -3.75171178338148E-14  -3.75171206987269E-14  -1.53297026553189E-14

   2.32222222222222E-01
   0.00000000000000E+00   0.00000000000000E+00   0.00000000000000E+00   3.91874945394477E-14   2.32645356025861E-21   3.91874968659012E-14   1.55308632959629E-14
  -5.62700000000000E+00  -5.62700000000000E+00   0.00000000000000E+00   9.98828659317439E-18  -3.91974851524943E-14  -3.91874968659012E-14  -1.55308632959629E-14

   4.07049382716049E-01
   0.00000000000000E+00   0.00000000000000E+00   0.00000000000000E+00   4.01580022384604E-14   2.31601432338333E-21   4.01580045544747E-14   1.57874214130341E-14
  -6.09903333333333E+00  -6.09903333333333E+00   0.00000000000000E+00   1.34186256940323E-17  -4.01714231801688E-14  -4.01580045544748E-14  -1.57874214130341E-14

   6.38209739368999E-01
   0.00000000000000E+00   0.00000000000000E+00   0.00000000000000E+00   4.21561379998841E-14   2.33696653429749E-21   4.21561403368507E-14   1.61201745019870E-14
  -6.72316629629630E+00  -6.72316629629630E+00   0.00000000000000E+00   1.01817113644127E-18  -4.21571585079871E-14  -4.21561403368506E-14  -1.61201745019870E-14

   9.43855099832343E-01
   0.00000000000000E+00   0.00000000000000E+00   0.00000000000000E+00   4.40159178039037E-14   2.34158999479123E-21   4.40159201454937E-14   1.65490613008245E-14
  -7.54840876954732E+00  -7.54840876954732E+00   0.00000000000000E+00   4.64266585676416E-20  -4.40159665721523E-14  -4.40159201454938E-14  -1.65490613008246E-14

   1.00000000000000E+00
   0.00000000000000E+00   0.00000000000000E+00   0.00000000000000E+00   4.42537991620662E-14   2.34687365390618E-21   4.42538015089398E-14   1.66268807038949E-14
  -7.70000000000000E+00  -7.70000000000000E+00   0.00000000000000E+00  -5.02188743455353E-21  -4.42537964870525E-14  -4.42538015089400E-14  -1.66268807038950E-14

   0.00000000000000E+00
   0.00000000000000E+00   0.00000000000000E+00   0.00000000000000E+00   4.42537988842808E-14   2.34568786610089E-21   4.42538012299687E-14   1.66268807034377E-14
  -7.70000000000000E+00  -7.70000000000000E+00   0.00000000000000E+00  -4.74410622535400E-21  -4.42537964858622E-14  -4.42538012299684E-14  -1.66268807034377E-14

   5.00000000000000E-02
   0.00000000000000E+00   0.00000000000000E+00   0.00000000000000E+00   4.52724158685081E-14   2.34508548417088E-21   4.52724182135936E-14   1.69379741234551E-14
  -8.31000000000000E+00  -8.31000000000000E+00   0.00000000000000E+00   2.11953776051627E-20  -4.52724394089714E-14  -4.52724182135937E-14  -1.69379741234551E-14

   1.09666666666667E-01
   0.00000000000000E+00   0.00000000000000E+00   0.00000000000000E+00   4.59955588218496E-14   2.29803353353868E-21   4.59955611198831E-14   1.73048747679352E-14
  -9.03793333333333E+00  -9.03793333333333E+00   0.00000000000000E+00   6.72832926491014E-19  -4.59962339528095E-14  -4.59955611198830E-14  -1.73048747679352E-14

   1.82460000000000E-01
   0.00000000000000E+00   0.00000000000000E+00   0.00000000000000E+00   4.70150155028190E-14   2.34773298291650E-21   4.70150178505519E-14   1.77483575952803E-14
  -9.92601200000000E+00  -9.92601200000000E+00   0.00000000000000E+00  -5.48603821252944E-22  -4.70150173019482E-14  -4.70150178505520E-14  -1.77483575952803E-14

   2.69326711111111E-01
   0.00000000000000E+00   0.00000000000000E+00   0.00000000000000E+00   4.75488873610657E-14   2.34294573728666E-21   4.75488897040114E-14   1.82718105865839E-14
  -1.09857858755556E+01  -1.09857858755556E+01   0.00000000000000E+00   4.76473920873872E-22  -4.75488901804850E-14  -4.75488897040111E-14  -1.82718105865839E-14

   3.72987653037037E-01
   0.00000000000000E+00   0.00000000000000E+00   0.00000000000000E+00   4.79642902751595E-14   9.58332896117049E-22   4.79642912334924E-14   1.88898967358948E-14
  -1.22504493670519E+01  -1.22504493670519E+01   0.00000000000000E+00  -2.25482016869213E-19  -4.79640657514752E-14  -4.79642912334921E-14  -1.88898967358948E-14

   4.99454002186667E-01
   0.00000000000000E+00   0.00000000000000E+00   0.00000000000000E+00   4.90025185214016E-14  -1.05276207626075E-21   4.90025174686396E-14   1.96340503192384E-14
  -1.37933388266773E+01  -1.37933388266773E+01   0.00000000000000E+00  -5.95048341304658E-19  -4.90019224202982E-14  -4.90025174686396E-14  -1.96340503192384E-14

   6.53742948149215E-01
   0.00000000000000E+00   0.00000000000000E+00   0.00000000000000E+00   4.95996566754336E-14  -7.54285447426715E-21   4.95996491325791E-14   2.05254958133811E-14
  -1.56756639674204E+01  -1.56756639674204E+01   0.00000000000000E+00   1.59765906002476E-18  -4.96012467916392E-14  -4.95996491325791E-14  -2.05254958133811E-14

   8.41975462223524E-01
   0.00000000000000E+00   0.00000000000000E+00   0.00000000000000E+00   4.98773620263860E-14   1.52184178957466E-21   4.98773635482278E-14   2.15906536885753E-14
  -1.79721006391270E+01  -1.79721006391270E+01   0.00000000000000E+00  -7.70656402685756E-20  -4.98772864825877E-14  -4.98773635482280E-14  -2.15906536885753E-14

   1.00000000000000E+00
   0.00000000000000E+00   0.00000000000000E+00   0.00000000000000E+00   5.00929367032728E-14  -7.95289767070929E-21   5.00929287503751E-14   2.24708730332744E-14
  -1.99000000000000E+01  -1.99000000000000E+01   0.00000000000000E+00  -1.90172653983620E-18  -5.00910270238352E-14  -5.00929287503750E-14  -2.24708730332743E-14

   0.00000000000000E+00
   0.00000000000000E+00   0.00000000000000E+00   0.00000000000000E+00   5.00911376118917E-14   2.09410581058867E-21   5.00911397059975E-14   2.24708738335862E-14
  -1.99000000000000E+01  -1.99000000000000E+01   0.00000000000000E+00  -1.02602357353228E-19  -5.00910371036399E-14  -5.00911397059973E-14  -2.24708738335863E-14

   1.00000000000000E+00
   0.00000000000000E+00   0.00000000000000E+00   0.00000000000000E+00   5.01018399536900E-14   2.57749325397415E-21   5.01018425311833E-14   2.25163023957186E-14
  -2.00000000000000E+01  -2.00000000000000E+01   0.00000000000000E+00   9.88222451085827E-20  -5.01019413534706E-14  -5.01018425312255E-14  -2.25163023957186E-14

   0.00000000000000E+00
   0.00000000000000E+00   0.00000000000000E+00   0.00000000000000E+00   5.01019474988849E-14   2.36126860359680E-21   5.01019498601535E-14   2.25163024170622E-14
  -2.00000000000000E+01  -2.00000000000000E+01   0.00000000000000E+00  -8.71883044067878E-21  -5.01019411413228E-14  -5.01019498601533E-14  -2.25163024170622E-14

   1.00000000000000E-01
   0.00000000000000E+00   0.00000000000000E+00   0.00000000000000E+00   5.03134219851468E-14  -5.76938865388825E-21   5.03134162157581E-14   2.34176109369498E-14
  -2.19900000000000E+01  -2.19900000000000E+01   0.00000000000000E+00  -2.67607062354759E-18  -5.03107401451343E-14  -5.03134162157578E-14  -2.34176109369498E-14

   2.36666666666667E-01
   0.00000000000000E+00   0.00000000000000E+00   0.00000000000000E+00   5.05671158709787E-14  -2.34437109762311E-20   5.05670924272677E-14   2.46445966778066E-14
  -2.47096666666667E+01  -2.47096666666667E+01   0.00000000000000E+00  -2.05919984516189E-18  -5.05650332274226E-14  -5.05670924272677E-14  -2.46445966778066E-14

   4.23444444444445E-01
   0.00000000000000E+00   0.00000000000000E+00   0.00000000000000E+00   5.08756327399310E-14   2.10357798378773E-21   5.08756348435090E-14   2.63153726009337E-14
  -2.84265444444444E+01  -2.84265444444444E+01   0.00000000000000E+00   8.88863685518151E-20  -5.08757237298775E-14  -5.08756348435090E-14  -2.63153726009337E-14

   6.70406172839506E-01
   0.00000000000000E+00   0.00000000000000E+00   0.00000000000000E+00   5.12884789190411E-14   2.78922162726436E-23   5.12884789469333E-14   2.85142383309581E-14
  -3.33410828395062E+01  -3.33410828395062E+01   0.00000000000000E+00   9.21160688513711E-20  -5.12885710630021E-14  -5.12884789469333E-14  -2.85142383309581E-14

   9.96944458161866E-01
   0.00000000000000E+00   0.00000000000000E+00   0.00000000000000E+00   5.20220082849182E-14  -1.04083013574696E-19   5.20219042019046E-14   3.14008797855202E-14
  -3.98391947174211E+01  -3.98391947174211E+01   0.00000000000000E+00   1.80853522475159E-18  -5.20237127371295E-14  -5.20219042019047E-14  -3.14008797855202E-14

   1.00000000000000E+00
   0.00000000000000E+00   0.00000000000000E+00   0.00000000000000E+00   5.20331459909282E-14   2.47378729868045E-21   5.20331484647155E-14   3.14277651257633E-14
  -3.99000000000000E+01  -3.99000000000000E+01   0.00000000000000E+00  -8.69689954301599E-20  -5.20330614957171E-14  -5.20331484647125E-14  -3.14277651257632E-14

   0.00000000000000E+00
   0.00000000000000E+00   0.00000000000000E+00   0.00000000000000E+00   5.20330668849428E-14   2.37368748023632E-21   5.20330692586303E-14   3.14277651257667E-14
  -3.99000000000000E+01  -3.99000000000000E+01   0.00000000000000E+00  -7.86238387837145E-21  -5.20330613962463E-14  -5.20330692586302E-14  -3.14277651257666E-14

   1.00000000000000E+00
   0.00000000000000E+00   0.00000000000000E+00   0.00000000000000E+00   5.20485872654562E-14   2.62031561270119E-21   5.20485898857718E-14   3.14719726921953E-14
  -4.00000000000000E+01  -4.00000000000000E+01   0.00000000000000E+00  -2.09203682019007E-19  -5.20483806820589E-14  -5.20485898857409E-14  -3.14719726921951E-14

   0.00000000000000E+00
   0.00000000000000E+00   0.00000000000000E+00   0.00000000000000E+00   5.20483909522076E-14   2.37501872126937E-21   5.20483933272264E-14   3.14719727022064E-14
  -4.00000000000000E+01  -4.00000000000000E+01   0.00000000000000E+00  -1.28888892740981E-20  -5.20483804383371E-14  -5.20483933272263E-14  -3.14719727022064E-14

   2.00000000000000E-01
   0.00000000000000E+00   0.00000000000000E+00   0.00000000000000E+00   5.23806805623515E-14   1.94231822567029E-21   5.23806825046697E-14   3.23457269936766E-14
  -4.19800000000000E+01  -4.19800000000000E+01   0.00000000000000E+00  -2.17557127660776E-18  -5.23785069333932E-14  -5.23806825046698E-14  -3.23457269936766E-14

   4.73333333333333E-01
   0.00000000000000E+00   0.00000000000000E+00   0.00000000000000E+00   5.28720927158806E-14  -1.11162681460505E-21   5.28720916042538E-14   3.35343607688953E-14
  -4.46860000000000E+01  -4.46860000000000E+01   0.00000000000000E+00  -1.74420072229927E-17  -5.28546495970309E-14  -5.28720916042538E-14  -3.35343607688953E-14

   8.46888888888889E-01
   0.00000000000000E+00   0.00000000000000E+00   0.00000000000000E+00   5.33778112582264E-14  -5.87195949500319E-20   5.33777525386314E-14   3.51449318090009E-14
  -4.83842000000000E+01  -4.83842000000000E+01   0.00000000000000E+00  -1.18926374739688E-17  -5.33658599011576E-14  -5.33777525386315E-14  -3.51449318090009E-14

   1.00000000000000E+00
   0.00000000000000E+00   0.00000000000000E+00   0.00000000000000E+00   5.35484390157172E-14   1.11447021171373E-21   5.35484401301874E-14   3.57986515912144E-14
  -4.99000000000000E+01  -4.99000000000000E+01   0.00000000000000E+00  -2.49670955595651E-17  -5.35234730346505E-14  -5.35484401302101E-14  -3.57986515912144E-14

   0.00000000000000E+00
   0.00000000000000E+00   0.00000000000000E+00   0.00000000000000E+00   5.35246880130763E-14   2.35067618507406E-21   5.35246903637525E-14   3.57986515316631E-14
  -4.99000000000000E+01  -4.99000000000000E+01   0.00000000000000E+00  -1.21608922816891E-18  -5.35234742745242E-14  -5.35246903637524E-14  -3.57986515316630E-14

   1.00000000000000E+00
   0.00000000000000E+00   0.00000000000000E+00   0.00000000000000E+00   5.35333952007173E-14   2.59481926006301E-21   5.35333977955366E-14   3.58416192413511E-14
  -5.00000000000000E+01  -5.00000000000000E+01   0.00000000000000E+00  -2.30427827756041E-19  -5.35331673676911E-14  -5.35333977955188E-14  -3.58416192413510E-14

   0.00000000000000E+00
   0.00000000000000E+00   0.00000000000000E+00   0.00000000000000E+00   5.35331776400713E-14   2.38171912859458E-21   5.35331800217904E-14   3.58416192420252E-14
  -5.00000000000000E+01  -5.00000000000000E+01   0.00000000000000E+00  -1.28657954935541E-20  -5.35331671559950E-14  -5.35331800217905E-14  -3.58416192420250E-14

   2.00000000000000E-01
   0.00000000000000E+00   0.00000000000000E+00   0.00000000000000E+00   5.37689851402685E-14  -1.63229729080626E-20   5.37689688172956E-14   3.66879055942000E-14
  -5.19800000000000E+01  -5.19800000000000E+01   0.00000000000000E+00  -5.57795477186306E-17  -5.37131892698157E-14  -5.37689688175344E-14  -3.66879055942000E-14

   4.82222222222222E-01
   0.00000000000000E+00   0.00000000000000E+00   0.00000000000000E+00   5.39465472460419E-14   2.31408608555138E-21   5.39465495601280E-14   3.78664162629607E-14
  -5.47740000000000E+01  -5.47740000000000E+01   0.00000000000000E+00  -2.14763313763077E-19  -5.39463347968143E-14  -5.39465495601281E-14  -3.78664162629607E-14

   8.55382716049383E-01
   0.00000000000000E+00   0.00000000000000E+00   0.00000000000000E+00   5.42474690145676E-14   1.73237609635744E-21   5.42474707469437E-14   3.93948121011672E-14
  -5.84682888888889E+01  -5.84682888888889E+01   0.00000000000000E+00   6.94707605045596E-20  -5.42475402177042E-14  -5.42474707469437E-14  -3.93948121011671E-14

   1.00000000000000E+00
   0.00000000000000E+00   0.00000000000000E+00   0.00000000000000E+00   5.43758039138507E-14   9.34784701338165E-22   5.43758048486354E-14   3.99775520191107E-14
  -5.99000000000000E+01  -5.99000000000000E+01   0.00000000000000E+00  -9.04788373331239E-18  -5.43667569650816E-14  -5.43758048488149E-14  -3.99775520191107E-14

   0.00000000000000E+00
   0.00000000000000E+00   0.00000000000000E+00   0.00000000000000E+00   5.43670654591115E-14   2.36187167739051E-21   5.43670678209832E-14   3.99775520129223E-14
  -5.99000000000000E+01  -5.99000000000000E+01   0.00000000000000E+00  -3.09427331469204E-19  -5.43667583936518E-14  -5.43670678209833E-14  -3.99775520129222E-14

   1.00000000000000E+00
   0.00000000000000E+00   0.00000000000000E+00   0.00000000000000E+00   5.43753631380029E-14   2.58419581043802E-21   5.43753657221987E-14   4.00180396171078E-14
  -6.00000000000000E+01  -6.00000000000000E+01   0.00000000000000E+00  -1.88214928610603E-19  -5.43751775073327E-14  -5.43753657222613E-14  -4.00180396171079E-14

   0.00000000000000E+00
   0.00000000000000E+00   0.00000000000000E+00   0.00000000000000E+00   5.43751840029191E-14   2.38782856734512E-21   5.43751863907477E-14   4.00180396107768E-14
  -6.00000000000000E+01  -6.00000000000000E+01   0.00000000000000E+00  -9.07865646353511E-21  -5.43751773120912E-14  -5.43751863907477E-14  -4.00180396107768E-14

   2.00000000000000E-01
   0.00000000000000E+00   0.00000000000000E+00   0.00000000000000E+00   5.45450869921854E-14   2.00256715633124E-21   5.45450889947525E-14   4.08134380138627E-14
  -6.19800000000000E+01  -6.19800000000000E+01   0.00000000000000E+00  -3.74163653718343E-19  -5.45447148310990E-14  -5.45450889947527E-14  -4.08134380138626E-14

   4.73333333333333E-01
   0.00000000000000E+00   0.00000000000000E+00   0.00000000000000E+00   5.47852921748533E-14   1.61998222271604E-21   5.47852937948355E-14   4.18785382476002E-14
  -6.46860000000000E+01  -6.46860000000000E+01   0.00000000000000E+00   7.97694495815376E-20  -5.47853735642851E-14  -5.47852937948355E-14  -4.18785382476003E-14

   8.34740740740741E-01
   0.00000000000000E+00   0.00000000000000E+00   0.00000000000000E+00   5.51146383719231E-14   1.87250471756852E-21   5.51146402444278E-14   4.32381583564083E-14
  -6.82639333333333E+01  -6.82639333333333E+01   0.00000000000000E+00   3.00097429058746E-19  -5.51149403418567E-14  -5.51146402444276E-14  -4.32381583564084E-14

   1.00000000000000E+00
   0.00000000000000E+00   0.00000000000000E+00   0.00000000000000E+00   5.52657235540463E-14   3.21492490038598E-21   5.52657267689712E-14   4.38383683826492E-14
  -6.99000000000000E+01  -6.99000000000000E+01   0.00000000000000E+00   1.69016862172661E-19  -5.52658957858332E-14  -5.52657267689710E-14  -4.38383683826493E-14

   0.00000000000000E+00
   0.00000000000000E+00   0.00000000000000E+00   0.00000000000000E+00   5.52658872575325E-14   2.46079196467987E-21   5.52658897183245E-14   4.38383692240966E-14
  -6.99000000000000E+01  -6.99000000000000E+01   0.00000000000000E+00   5.32562708969652E-21  -5.52658950439516E-14  -5.52658897183245E-14  -4.38383692240967E-14

   1.00000000000000E+00
   0.00000000000000E+00   0.00000000000000E+00   0.00000000000000E+00   5.52751897693146E-14   2.58508841041383E-21   5.52751923544030E-14   4.38746281197704E-14
  -7.00000000000000E+01  -7.00000000000000E+01   0.00000000000000E+00  -1.41321796251597E-19  -5.52750510325430E-14  -5.52751923543392E-14  -4.38746281197704E-14

   0.00000000000000E+00
   0.00000000000000E+00   0.00000000000000E+00   0.00000000000000E+00   5.52750544459770E-14   2.39355743870004E-21   5.52750568395344E-14   4.38746281121250E-14
  -7.00000000000000E+01  -7.00000000000000E+01   0.00000000000000E+00  -5.99731071126615E-21  -5.52750508422238E-14  -5.52750568395345E-14  -4.38746281121249E-14

   1.00000000000000E-01
   0.00000000000000E+00   0.00000000000000E+00   0.00000000000000E+00   5.55424615967137E-14   1.08465279106891E-22   5.55424617051789E-14   4.49411694949508E-14
  -7.29900000000000E+01  -7.29900000000000E+01   0.00000000000000E+00   7.38733827399413E-20  -5.55425355785617E-14  -5.55424617051790E-14  -4.49411694949508E-14

   2.32222222222222E-01
   0.00000000000000E+00   0.00000000000000E+00   0.00000000000000E+00   5.58784539400985E-14   7.66343955543880E-23   5.58784540167329E-14   4.63206232593447E-14
  -7.69434444444445E+01  -7.69434444444445E+01   0.00000000000000E+00   3.97865347790127E-19  -5.58788518820807E-14  -5.58784540167329E-14  -4.63206232593446E-14

   4.07049382716049E-01