DF-ISE text

# filename: dot1_50x13_wgt_msh.grd
# written by the library Delaunay
Info {
version     =  1
type        = grid
dimension   =  3
nb_vertices =  12390
nb_edges    =  46221
nb_faces    =  55828
nb_elements =  23389
nb_regions  =  11
regions     = [ "substrate" "anode" "cathode" "pixel01" "pixel02" "pixel10" "pixel11" "pixel12" "pixel20" "pixel21" "pixel22" ]
materials     = [ Oxide Contact Contact Contact Contact Contact Contact Contact Contact Contact Contact ]
 }
Data {
CoordSystem {
translate = [  0  0  0 ]
transform = [  1  0  0  0  1  0  0  0  1 ]
 }
Vertices (  12390) {
 0 0 0
 3.125 0 0
 0 4.875 0
 0 0 1.953125
 3.125 4.875 0
 3.125 0 1.953125
 0 4.875 1.953125
 3.125 4.875 1.953125
 0 0 3.90625
 3.125 0 3.90625
 0 4.875 3.90625
 3.125 4.875 3.90625
 6.250000000000001 0 0
 6.250000000000001 4.875 0
 6.250000000000001 0 1.953125
 6.250000000000001 4.875 1.953125
 6.250000000000001 0 3.90625
 6.250000000000001 4.875 3.90625
 0 0 5.859375000000001
 3.125 0 5.859375000000001
 0 4.875 5.859375000000001
 3.125 4.875 5.859375000000001
 3.125 0 7.812500000000001
 0 0 7.812500000000001
 0 4.875 7.812500000000001
 3.125 4.875 7.812500000000001
 6.250000000000001 0 5.859375000000001
 6.250000000000001 4.875 5.859375000000001
 6.250000000000001 4.875 7.812500000000001
 6.250000000000001 0 7.812500000000001
 0 9.75 0
 3.125 9.75 0
 0 9.75 1.953125
 3.125 9.75 1.953125
 0 9.75 3.90625
 3.125 9.75 3.90625
 6.250000000000001 9.75 0
 6.250000000000001 9.75 1.953125
 6.250000000000001 9.75 3.90625
 0 9.75 5.859375000000001
 3.125 9.75 5.859375000000001
 0 9.75 7.812500000000001
 3.125 9.75 7.812500000000001
 6.250000000000001 9.75 5.859375000000001
 6.250000000000001 9.75 7.812500000000001
 9.375000000000002 0 0
 9.375000000000002 4.875 0
 9.375000000000002 0 1.953125
 9.375000000000002 4.875 1.953125
 9.375000000000002 0 3.90625
 9.375000000000002 4.875 3.90625
 12.5 0 0
 12.5 4.875 0
 12.5 0 1.953125
 12.5 4.875 1.953125
 12.5 0 3.90625
 12.5 4.875 3.90625
 9.375000000000002 0 5.859375000000001
 9.375000000000002 4.875 5.859375000000001
 9.375000000000002 0 7.812500000000001
 9.375000000000002 4.875 7.812500000000001
 12.5 0 5.859375000000001
 12.5 4.875 5.859375000000001
 12.5 4.875 7.812500000000001
 12.5 0 7.812500000000001
 9.375000000000002 9.75 0
 9.375000000000002 9.75 1.953125
 9.375000000000002 9.75 3.90625
 12.5 9.75 0
 12.5 9.75 1.953125
 12.5 9.75 3.90625
 9.375000000000002 9.75 5.859375000000001
 9.375000000000002 9.75 7.812500000000001
 12.5 9.75 5.859375000000001
 12.5 9.75 7.812500000000001
 0 0 9.765625000000002
 0 4.875 9.765625000000002
 6.250000000000001 4.875 9.765625000000002
 6.250000000000001 0 9.765625000000002
 0 0 11.71875
 6.250000000000001 0 11.71875
 0 4.875 11.71875
 6.250000000000001 4.875 11.71875
 0 0 13.671875
 6.250000000000001 0 13.671875
 0 4.875 13.671875
 6.250000000000001 4.875 13.671875
 0 0 15.625
 6.250000000000001 0 15.625
 0 4.875 15.625
 6.250000000000001 4.875 15.625
 0 9.75 9.765625000000002
 6.250000000000001 9.75 9.765625000000002
 0 9.75 11.71875
 6.250000000000001 9.75 11.71875
 0 9.75 13.671875
 6.250000000000001 9.75 13.671875
 0 9.75 15.625
 6.250000000000001 9.75 15.625
 12.5 4.875 9.765625000000002
 12.5 0 9.765625000000002
 12.5 0 11.71875
 12.5 4.875 11.71875
 12.5 0 13.671875
 12.5 4.875 13.671875
 12.5 0 15.625
 12.5 4.875 15.625
 12.5 9.75 9.765625000000002
 12.5 9.75 11.71875
 12.5 9.75 13.671875
 12.5 9.75 15.625
 0 14.625 0
 3.125 14.625 0
 0 14.625 1.953125
 3.125 14.625 1.953125
 0 14.625 3.90625
 3.125 14.625 3.90625
 6.250000000000001 14.625 0
 6.250000000000001 14.625 1.953125
 6.250000000000001 14.625 3.90625
 0 14.625 5.859375000000001
 3.125 14.625 5.859375000000001
 0 14.625 7.812500000000001
 3.125 14.625 7.812500000000001
 6.250000000000001 14.625 5.859375000000001
 6.250000000000001 14.625 7.812500000000001
 0 19.5 0
 3.125 19.5 0
 0 19.5 1.953125
 3.125 19.5 1.953125
 0 19.5 3.90625
 3.125 19.5 3.90625
 6.250000000000001 19.5 0
 6.250000000000001 19.5 1.953125
 6.250000000000001 19.5 3.90625
 0 19.5 5.859375000000001
 3.125 19.5 5.859375000000001
 0 19.5 7.812500000000001
 3.125 19.5 7.812500000000001
 6.250000000000001 19.5 5.859375000000001
 6.250000000000001 19.5 7.812500000000001
 9.375000000000002 14.625 0
 9.375000000000002 14.625 1.953125
 9.375000000000002 14.625 3.90625
 12.5 14.625 0
 12.5 14.625 1.953125
 12.5 14.625 3.90625
 9.375000000000002 14.625 5.859375000000001
 9.375000000000002 14.625 7.812500000000001
 12.5 14.625 5.859375000000001
 12.5 14.625 7.812500000000001
 9.375000000000002 19.5 0
 9.375000000000002 19.5 1.953125
 9.375000000000002 19.5 3.90625
 12.5 19.5 0
 12.5 19.5 1.953125
 12.5 19.5 3.90625
 9.375000000000002 19.5 5.859375000000001
 9.375000000000002 19.5 7.812500000000001
 12.5 19.5 5.859375000000001
 12.5 19.5 7.812500000000001
 0 14.625 9.765625000000002
 6.250000000000001 14.625 9.765625000000002
 0 14.625 11.71875
 6.250000000000001 14.625 11.71875
 0 14.625 13.671875
 6.250000000000001 14.625 13.671875
 0 14.625 15.625
 6.250000000000001 14.625 15.625
 0 19.5 9.765625000000002
 6.250000000000001 19.5 9.765625000000002
 0 19.5 11.71875
 6.250000000000001 19.5 11.71875
 0 19.5 13.671875
 6.250000000000001 19.5 13.671875
 0 19.5 15.625
 6.250000000000001 19.5 15.625
 12.5 14.625 9.765625000000002
 12.5 14.625 11.71875
 12.5 14.625 13.671875
 12.5 14.625 15.625
 12.5 19.5 9.765625000000002
 12.5 19.5 11.71875
 12.5 19.5 13.671875
 12.5 19.5 15.625
 15.625 0 0
 15.625 4.875 0
 15.625 0 1.953125
 15.625 4.875 1.953125
 15.625 0 3.90625
 15.625 4.875 3.90625
 18.75 0 0
 18.75 4.875 0
 18.75 0 1.953125
 18.75 4.875 1.953125
 18.75 0 3.90625
 18.75 4.875 3.90625
 15.625 0 5.859375000000001
 15.625 4.875 5.859375000000001
 15.625 0 7.812500000000001
 15.625 4.875 7.812500000000001
 18.75 0 5.859375000000001
 18.75 4.875 5.859375000000001
 18.75 4.875 7.812500000000001
 18.75 0 7.812500000000001
 15.625 9.75 0
 15.625 9.75 1.953125
 15.625 9.75 3.90625
 18.75 9.75 0
 18.75 9.75 1.953125
 18.75 9.75 3.90625
 15.625 9.75 5.859375000000001
 15.625 9.75 7.812500000000001
 18.75 9.75 5.859375000000001
 18.75 9.75 7.812500000000001
 25 0 0
 25 4.875 0
 25 0 1.953125
 25 4.875 1.953125
 25 0 3.90625
 25 4.875 3.90625
 25 0 5.859375000000001
 25 4.875 5.859375000000001
 25 0 7.812500000000001
 25 4.875 7.812500000000001
 25 9.75 0
 25 9.75 1.953125
 25 9.75 3.90625
 25 9.75 5.859375000000001
 25 9.75 7.812500000000001
 18.75 4.875 9.765625000000002
 18.75 0 9.765625000000002
 18.75 0 11.71875
 18.75 4.875 11.71875
 18.75 0 13.671875
 18.75 4.875 13.671875
 18.75 0 15.625
 18.75 4.875 15.625
 18.75 9.75 9.765625000000002
 18.75 9.75 11.71875
 18.75 9.75 13.671875
 18.75 9.75 15.625
 25 0 9.765625000000002
 25 4.875 9.765625000000002
 25 0 11.71875
 25 4.875 11.71875
 25 0 13.671875
 25 4.875 13.671875
 25 0 15.625
 25 4.875 15.625
 25 9.75 9.765625000000002
 25 9.75 11.71875
 25 9.75 13.671875
 25 9.75 15.625
 15.625 14.625 0
 15.625 14.625 1.953125
 15.625 14.625 3.90625
 18.75 14.625 0
 18.75 14.625 1.953125
 18.75 14.625 3.90625
 15.625 14.625 5.859375000000001
 15.625 14.625 7.812500000000001
 18.75 14.625 5.859375000000001
 18.75 14.625 7.812500000000001
 15.625 19.5 0
 15.625 19.5 1.953125
 15.625 19.5 3.90625
 18.75 19.5 0
 18.75 19.5 1.953125
 18.75 19.5 3.90625
 15.625 19.5 5.859375000000001
 15.625 19.5 7.812500000000001
 18.75 19.5 5.859375000000001
 18.75 19.5 7.812500000000001
 25 14.625 0
 25 14.625 1.953125
 25 14.625 3.90625
 25 14.625 5.859375000000001
 25 14.625 7.812500000000001
 25 19.5 0
 25 19.5 1.953125
 25 19.5 3.90625
 25 19.5 5.859375000000001
 25 19.5 7.812500000000001
 18.75 14.625 9.765625000000002
 18.75 14.625 11.71875
 18.75 14.625 13.671875
 18.75 14.625 15.625
 18.75 19.5 9.765625000000002
 18.75 19.5 11.71875
 18.75 19.5 13.671875
 18.75 19.5 15.625
 25 14.625 9.765625000000002
 25 14.625 11.71875
 25 14.625 13.671875
 25 14.625 15.625
 25 19.5 9.765625000000002
 25 19.5 11.71875
 25 19.5 13.671875
 25 19.5 15.625
 0 0 17.578125
 6.250000000000001 0 17.578125
 0 4.875 17.578125
 6.250000000000001 4.875 17.578125
 0 0 19.53125
 6.250000000000001 0 19.53125
 0 4.875 19.53125
 6.250000000000001 4.875 19.53125
 0 0 21.484375
 6.250000000000001 0 21.484375
 0 4.875 21.484375
 6.250000000000001 4.875 21.484375
 0 0 23.4375
 6.250000000000001 0 23.4375
 0 4.875 23.4375
 6.250000000000001 4.875 23.4375
 0 9.75 17.578125
 6.250000000000001 9.75 17.578125
 0 9.75 19.53125
 6.250000000000001 9.75 19.53125
 0 9.75 21.484375
 6.250000000000001 9.75 21.484375
 0 9.75 23.4375
 6.250000000000001 9.75 23.4375
 12.5 0 17.578125
 12.5 4.875 17.578125
 12.5 0 19.53125
 12.5 4.875 19.53125
 12.5 0 21.484375
 12.5 4.875 21.484375
 12.5 0 23.4375
 12.5 4.875 23.4375
 12.5 9.75 17.578125
 12.5 9.75 19.53125
 12.5 9.75 21.484375
 12.5 9.75 23.4375
 0 0 25.390625
 6.250000000000001 0 25.390625
 0 4.875 25.390625
 6.250000000000001 4.875 25.390625
 0 0 27.34375
 6.250000000000001 0 27.34375
 0 4.875 27.34375
 6.250000000000001 4.875 27.34375
 0 0 29.296875
 6.250000000000001 0 29.296875
 0 4.875 29.296875
 6.250000000000001 4.875 29.296875
 0 0 31.25
 6.250000000000001 0 31.25
 0 4.875 31.25
 6.250000000000001 4.875 31.25
 0 9.75 25.390625
 6.250000000000001 9.75 25.390625
 0 9.75 27.34375
 6.250000000000001 9.75 27.34375
 0 9.75 29.296875
 6.250000000000001 9.75 29.296875
 0 9.75 31.25
 6.250000000000001 9.75 31.25
 12.5 0 25.390625
 12.5 4.875 25.390625
 12.5 0 27.34375
 12.5 4.875 27.34375
 12.5 0 29.296875
 12.5 4.875 29.296875
 12.5 0 31.25
 12.5 4.875 31.25
 12.5 9.75 25.390625
 12.5 9.75 27.34375
 12.5 9.75 29.296875
 12.5 9.75 31.25
 0 14.625 17.578125
 6.250000000000001 14.625 17.578125
 0 14.625 19.53125
 6.250000000000001 14.625 19.53125
 0 14.625 21.484375
 6.250000000000001 14.625 21.484375
 0 14.625 23.4375
 6.250000000000001 14.625 23.4375
 0 19.5 17.578125
 6.250000000000001 19.5 17.578125
 0 19.5 19.53125
 6.250000000000001 19.5 19.53125
 0 19.5 21.484375
 6.250000000000001 19.5 21.484375
 0 19.5 23.4375
 6.250000000000001 19.5 23.4375
 12.5 14.625 17.578125
 12.5 14.625 19.53125
 12.5 14.625 21.484375
 12.5 14.625 23.4375
 12.5 19.5 17.578125
 12.5 19.5 19.53125
 12.5 19.5 21.484375
 12.5 19.5 23.4375
 0 14.625 25.390625
 6.250000000000001 14.625 25.390625
 0 14.625 27.34375
 6.250000000000001 14.625 27.34375
 0 14.625 29.296875
 6.250000000000001 14.625 29.296875
 0 14.625 31.25
 6.250000000000001 14.625 31.25
 0 19.5 25.390625
 6.250000000000001 19.5 25.390625
 0 19.5 27.34375
 6.250000000000001 19.5 27.34375
 0 19.5 29.296875
 6.250000000000001 19.5 29.296875
 0 19.5 31.25
 6.250000000000001 19.5 31.25
 12.5 14.625 25.390625
 12.5 14.625 27.34375
 12.5 14.625 29.296875
 12.5 14.625 31.25
 12.5 19.5 25.390625
 12.5 19.5 27.34375
 12.5 19.5 29.296875
 12.5 19.5 31.25
 18.75 0 17.578125
 18.75 4.875 17.578125
 18.75 0 19.53125
 18.75 4.875 19.53125
 18.75 0 21.484375
 18.75 4.875 21.484375
 18.75 0 23.4375
 18.75 4.875 23.4375
 18.75 9.75 17.578125
 18.75 9.75 19.53125
 18.75 9.75 21.484375
 18.75 9.75 23.4375
 25 0 17.578125
 25 4.875 17.578125
 25 0 19.53125
 25 4.875 19.53125
 25 0 21.484375
 25 4.875 21.484375
 25 0 23.4375
 25 4.875 23.4375
 25 9.75 17.578125
 25 9.75 19.53125
 25 9.75 21.484375
 25 9.75 23.4375
 18.75 0 25.390625
 18.75 4.875 25.390625
 18.75 0 27.34375
 18.75 4.875 27.34375
 18.75 0 29.296875
 18.75 4.875 29.296875
 18.75 0 31.25
 18.75 4.875 31.25
 18.75 9.75 25.390625
 18.75 9.75 27.34375
 18.75 9.75 29.296875
 18.75 9.75 31.25
 25 0 25.390625
 25 4.875 25.390625
 25 0 27.34375
 25 4.875 27.34375
 25 0 29.296875
 25 4.875 29.296875
 25 0 31.25
 25 4.875 31.25
 25 9.75 25.390625
 25 9.75 27.34375
 25 9.75 29.296875
 25 9.75 31.25
 18.75 14.625 17.578125
 18.75 14.625 19.53125
 18.75 14.625 21.484375
 18.75 14.625 23.4375
 18.75 19.5 17.578125
 18.75 19.5 19.53125
 18.75 19.5 21.484375
 18.75 19.5 23.4375
 25 14.625 17.578125
 25 14.625 19.53125
 25 14.625 21.484375
 25 14.625 23.4375
 25 19.5 17.578125
 25 19.5 19.53125
 25 19.5 21.484375
 25 19.5 23.4375
 18.75 14.625 25.390625
 18.75 14.625 27.34375
 18.75 14.625 29.296875
 18.75 14.625 31.25
 18.75 19.5 25.390625
 18.75 19.5 27.34375
 18.75 19.5 29.296875
 18.75 19.5 31.25
 25 14.625 25.390625
 25 14.625 27.34375
 25 14.625 29.296875
 25 14.625 31.25
 25 19.5 25.390625
 25 19.5 27.34375
 25 19.5 29.296875
 25 19.5 31.25
 0 24.375 0
 3.125 24.375 0
 0 24.375 1.953125
 3.125 24.375 1.953125
 0 24.375 3.90625
 3.125 24.375 3.90625
 6.250000000000001 24.375 0
 6.250000000000001 24.375 1.953125
 6.250000000000001 24.375 3.90625
 0 24.375 5.859375000000001
 3.125 24.375 5.859375000000001
 0 24.375 7.812500000000001
 3.125 24.375 7.812500000000001
 6.250000000000001 24.375 5.859375000000001
 6.250000000000001 24.375 7.812500000000001
 3.125 29.25 0
 0 29.25 0
 0 29.25 1.953125
 3.125 29.25 1.953125
 0 29.25 3.90625
 3.125 29.25 3.90625
 6.250000000000001 29.25 0
 6.250000000000001 29.25 1.953125
 6.250000000000001 29.25 3.90625
 0 29.25 5.859375000000001
 3.125 29.25 5.859375000000001
 0 29.25 7.812500000000001
 3.125 29.25 7.812500000000001
 6.250000000000001 29.25 5.859375000000001
 6.250000000000001 29.25 7.812500000000001
 9.375000000000002 24.375 0
 9.375000000000002 24.375 1.953125
 9.375000000000002 24.375 3.90625
 12.5 24.375 0
 12.5 24.375 1.953125
 12.5 24.375 3.90625
 9.375000000000002 24.375 5.859375000000001
 9.375000000000002 24.375 7.812500000000001
 12.5 24.375 5.859375000000001
 12.5 24.375 7.812500000000001
 9.375000000000002 29.25 0
 9.375000000000002 29.25 1.953125
 9.375000000000002 29.25 3.90625
 12.5 29.25 0
 12.5 29.25 1.953125
 12.5 29.25 3.90625
 9.375000000000002 29.25 5.859375000000001
 9.375000000000002 29.25 7.812500000000001
 12.5 29.25 5.859375000000001
 12.5 29.25 7.812500000000001
 0 24.375 9.765625000000002
 6.250000000000001 24.375 9.765625000000002
 0 24.375 11.71875
 6.250000000000001 24.375 11.71875
 0 24.375 13.671875
 6.250000000000001 24.375 13.671875
 0 24.375 15.625
 6.250000000000001 24.375 15.625
 0 29.25 9.765625000000002
 6.250000000000001 29.25 9.765625000000002
 0 29.25 11.71875
 6.250000000000001 29.25 11.71875
 0 29.25 13.671875
 6.250000000000001 29.25 13.671875
 0 29.25 15.625
 6.250000000000001 29.25 15.625
 12.5 24.375 9.765625000000002
 12.5 24.375 11.71875
 12.5 24.375 13.671875
 12.5 24.375 15.625
 12.5 29.25 9.765625000000002
 12.5 29.25 11.71875
 12.5 29.25 13.671875
 12.5 29.25 15.625
 0 34.125 0
 0 34.125 1.953125
 6.250000000000001 34.125 0
 6.250000000000001 34.125 1.953125
 0 34.125 3.90625
 6.250000000000001 34.125 3.90625
 0 34.125 5.859375000000001
 6.250000000000001 34.125 5.859375000000001
 0 34.125 7.812500000000001
 6.250000000000001 34.125 7.812500000000001
 0 39 0
 6.250000000000001 39 0
 0 39 1.953125
 6.250000000000001 39 1.953125
 0 39 3.90625
 6.250000000000001 39 3.90625
 0 39 5.859375000000001
 6.250000000000001 39 5.859375000000001
 0 39 7.812500000000001
 6.250000000000001 39 7.812500000000001
 12.5 34.125 0
 12.5 34.125 1.953125
 12.5 34.125 3.90625
 12.5 34.125 5.859375000000001
 12.5 34.125 7.812500000000001
 12.5 39 0
 12.5 39 1.953125
 12.5 39 3.90625
 12.5 39 5.859375000000001
 12.5 39 7.812500000000001
 0 34.125 9.765625000000002
 6.250000000000001 34.125 9.765625000000002
 0 34.125 11.71875
 6.250000000000001 34.125 11.71875
 0 34.125 13.671875
 6.250000000000001 34.125 13.671875
 0 34.125 15.625
 6.250000000000001 34.125 15.625
 0 39 9.765625000000002
 6.250000000000001 39 9.765625000000002
 0 39 11.71875
 6.250000000000001 39 11.71875
 0 39 13.671875
 6.250000000000001 39 13.671875
 0 39 15.625
 6.250000000000001 39 15.625
 12.5 34.125 9.765625000000002
 12.5 34.125 11.71875
 12.5 34.125 13.671875
 12.5 34.125 15.625
 12.5 39 9.765625000000002
 12.5 39 11.71875
 12.5 39 13.671875
 12.5 39 15.625
 15.625 24.375 0
 15.625 24.375 1.953125
 15.625 24.375 3.90625
 18.75 24.375 0
 18.75 24.375 1.953125
 18.75 24.375 3.90625
 15.625 24.375 5.859375000000001
 15.625 24.375 7.812500000000001
 18.75 24.375 5.859375000000001
 18.75 24.375 7.812500000000001
 15.625 29.25 0
 15.625 29.25 1.953125
 15.625 29.25 3.90625
 18.75 29.25 0
 18.75 29.25 1.953125
 18.75 29.25 3.90625
 15.625 29.25 5.859375000000001
 15.625 29.25 7.812500000000001
 18.75 29.25 5.859375000000001
 18.75 29.25 7.812500000000001
 25 24.375 0
 25 24.375 1.953125
 25 24.375 3.90625
 25 24.375 5.859375000000001
 25 24.375 7.812500000000001
 25 29.25 0
 25 29.25 1.953125
 25 29.25 3.90625
 25 29.25 5.859375000000001
 25 29.25 7.812500000000001
 18.75 24.375 9.765625000000002
 18.75 24.375 11.71875
 18.75 24.375 13.671875
 18.75 24.375 15.625
 18.75 29.25 9.765625000000002
 18.75 29.25 11.71875
 18.75 29.25 13.671875
 18.75 29.25 15.625
 25 24.375 9.765625000000002
 25 24.375 11.71875
 25 24.375 13.671875
 25 24.375 15.625
 25 29.25 9.765625000000002
 25 29.25 11.71875
 25 29.25 13.671875
 25 29.25 15.625
 18.75 34.125 0
 18.75 34.125 1.953125
 18.75 34.125 3.90625
 18.75 34.125 5.859375000000001
 18.75 34.125 7.812500000000001
 18.75 39 0
 18.75 39 1.953125
 18.75 39 3.90625
 18.75 39 5.859375000000001
 18.75 39 7.812500000000001
 25 34.125 0
 25 34.125 1.953125
 25 34.125 3.90625
 25 34.125 5.859375000000001
 25 34.125 7.812500000000001
 25 39 0
 25 39 1.953125
 25 39 3.90625
 25 39 5.859375000000001
 25 39 7.812500000000001
 18.75 34.125 9.765625000000002
 18.75 34.125 11.71875
 18.75 34.125 13.671875
 18.75 34.125 15.625
 18.75 39 9.765625000000002
 18.75 39 11.71875
 18.75 39 13.671875
 18.75 39 15.625
 25 34.125 9.765625000000002
 25 34.125 11.71875
 25 34.125 13.671875
 25 34.125 15.625
 25 39 9.765625000000002
 25 39 11.71875
 25 39 13.671875
 25 39 15.625
 0 24.375 17.578125
 6.250000000000001 24.375 17.578125
 0 24.375 19.53125
 6.250000000000001 24.375 19.53125
 0 24.375 21.484375
 6.250000000000001 24.375 21.484375
 0 24.375 23.4375
 6.250000000000001 24.375 23.4375
 0 29.25 17.578125
 6.250000000000001 29.25 17.578125
 0 29.25 19.53125
 6.250000000000001 29.25 19.53125
 0 29.25 21.484375
 6.250000000000001 29.25 21.484375
 0 29.25 23.4375
 6.250000000000001 29.25 23.4375
 12.5 24.375 17.578125
 12.5 24.375 19.53125
 12.5 24.375 21.484375
 12.5 24.375 23.4375
 12.5 29.25 17.578125
 12.5 29.25 19.53125
 12.5 29.25 21.484375
 12.5 29.25 23.4375
 0 24.375 25.390625
 6.250000000000001 24.375 25.390625
 0 24.375 27.34375
 6.250000000000001 24.375 27.34375
 0 24.375 29.296875
 6.250000000000001 24.375 29.296875
 0 24.375 31.25
 6.250000000000001 24.375 31.25
 0 29.25 25.390625
 6.250000000000001 29.25 25.390625
 0 29.25 27.34375
 6.250000000000001 29.25 27.34375
 0 29.25 29.296875
 6.250000000000001 29.25 29.296875
 0 29.25 31.25
 6.250000000000001 29.25 31.25
 12.5 24.375 25.390625
 12.5 24.375 27.34375
 12.5 24.375 29.296875
 12.5 24.375 31.25
 12.5 29.25 25.390625
 12.5 29.25 27.34375
 12.5 29.25 29.296875
 12.5 29.25 31.25
 0 34.125 17.578125
 6.250000000000001 34.125 17.578125
 0 34.125 19.53125
 6.250000000000001 34.125 19.53125
 0 34.125 21.484375
 6.250000000000001 34.125 21.484375
 0 34.125 23.4375
 6.250000000000001 34.125 23.4375
 0 39 17.578125
 6.250000000000001 39 17.578125
 0 39 19.53125
 6.250000000000001 39 19.53125
 0 39 21.484375
 6.250000000000001 39 21.484375
 0 39 23.4375
 6.250000000000001 39 23.4375
 12.5 34.125 17.578125
 12.5 34.125 19.53125
 12.5 34.125 21.484375
 12.5 34.125 23.4375
 12.5 39 17.578125
 12.5 39 19.53125
 12.5 39 21.484375
 12.5 39 23.4375
 0 34.125 25.390625
 6.250000000000001 34.125 25.390625
 0 34.125 27.34375
 6.250000000000001 34.125 27.34375
 0 34.125 29.296875
 6.250000000000001 34.125 29.296875
 0 34.125 31.25
 6.250000000000001 34.125 31.25
 0 39 25.390625
 6.250000000000001 39 25.390625
 0 39 27.34375
 6.250000000000001 39 27.34375
 0 39 29.296875
 6.250000000000001 39 29.296875
 0 39 31.25
 6.250000000000001 39 31.25
 12.5 34.125 25.390625
 12.5 34.125 27.34375
 12.5 34.125 29.296875
 12.5 34.125 31.25
 12.5 39 25.390625
 12.5 39 27.34375
 12.5 39 29.296875
 12.5 39 31.25
 18.75 24.375 17.578125
 18.75 24.375 19.53125
 18.75 24.375 21.484375
 18.75 24.375 23.4375
 18.75 29.25 17.578125
 18.75 29.25 19.53125
 18.75 29.25 21.484375
 18.75 29.25 23.4375
 25 24.375 17.578125
 25 24.375 19.53125
 25 24.375 21.484375
 25 24.375 23.4375
 25 29.25 17.578125
 25 29.25 19.53125
 25 29.25 21.484375
 25 29.25 23.4375
 18.75 24.375 25.390625
 18.75 24.375 27.34375
 18.75 24.375 29.296875
 18.75 24.375 31.25
 18.75 29.25 25.390625
 18.75 29.25 27.34375
 18.75 29.25 29.296875
 18.75 29.25 31.25
 25 24.375 25.390625
 25 24.375 27.34375
 25 24.375 29.296875
 25 24.375 31.25
 25 29.25 25.390625
 25 29.25 27.34375
 25 29.25 29.296875
 25 29.25 31.25
 18.75 34.125 17.578125
 18.75 34.125 19.53125
 18.75 34.125 21.484375
 18.75 34.125 23.4375
 18.75 39 17.578125
 18.75 39 19.53125
 18.75 39 21.484375
 18.75 39 23.4375
 25 34.125 17.578125
 25 34.125 19.53125
 25 34.125 21.484375
 25 34.125 23.4375
 25 39 17.578125
 25 39 19.53125
 25 39 21.484375
 25 39 23.4375
 18.75 34.125 25.390625
 18.75 34.125 27.34375
 18.75 34.125 29.296875
 18.75 34.125 31.25
 18.75 39 25.390625
 18.75 39 27.34375
 18.75 39 29.296875
 18.75 39 31.25
 25 34.125 25.390625
 25 34.125 27.34375
 25 34.125 29.296875
 25 34.125 31.25
 25 39 25.390625
 25 39 27.34375
 25 39 29.296875
 25 39 31.25
 31.25000000000001 0 0
 31.25000000000001 4.875 0
 31.25000000000001 0 1.953125
 31.25000000000001 4.875 1.953125
 31.25000000000001 0 3.90625
 31.25000000000001 4.875 3.90625
 31.25000000000001 0 5.859375000000001
 31.25000000000001 4.875 5.859375000000001
 31.25000000000001 0 7.812500000000001
 31.25000000000001 4.875 7.812500000000001
 31.25000000000001 9.75 0
 31.25000000000001 9.75 1.953125
 31.25000000000001 9.75 3.90625
 31.25000000000001 9.75 5.859375000000001
 31.25000000000001 9.75 7.812500000000001
 37.50000000000001 0 0
 37.50000000000001 4.875 0
 37.50000000000001 0 1.953125
 37.50000000000001 4.875 1.953125
 37.50000000000001 0 3.90625
 37.50000000000001 4.875 3.90625
 37.50000000000001 0 5.859375000000001
 37.50000000000001 4.875 5.859375000000001
 37.50000000000001 0 7.812500000000001
 37.50000000000001 4.875 7.812500000000001
 37.50000000000001 9.75 0
 37.50000000000001 9.75 1.953125
 37.50000000000001 9.75 3.90625
 37.50000000000001 9.75 5.859375000000001
 37.50000000000001 9.75 7.812500000000001
 31.25000000000001 0 9.765625000000002
 31.25000000000001 4.875 9.765625000000002
 31.25000000000001 0 11.71875
 31.25000000000001 4.875 11.71875
 31.25000000000001 0 13.671875
 31.25000000000001 4.875 13.671875
 31.25000000000001 0 15.625
 31.25000000000001 4.875 15.625
 31.25000000000001 9.75 9.765625000000002
 31.25000000000001 9.75 11.71875
 31.25000000000001 9.75 13.671875
 31.25000000000001 9.75 15.625
 37.50000000000001 0 9.765625000000002
 37.50000000000001 4.875 9.765625000000002
 37.50000000000001 0 11.71875
 37.50000000000001 4.875 11.71875
 37.50000000000001 0 13.671875
 37.50000000000001 4.875 13.671875
 37.50000000000001 0 15.625
 37.50000000000001 4.875 15.625
 37.50000000000001 9.75 9.765625000000002
 37.50000000000001 9.75 11.71875
 37.50000000000001 9.75 13.671875
 37.50000000000001 9.75 15.625
 31.25000000000001 14.625 0
 31.25000000000001 14.625 1.953125
 31.25000000000001 14.625 3.90625
 31.25000000000001 14.625 5.859375000000001
 31.25000000000001 14.625 7.812500000000001
 31.25000000000001 19.5 0
 31.25000000000001 19.5 1.953125
 31.25000000000001 19.5 3.90625
 31.25000000000001 19.5 5.859375000000001
 31.25000000000001 19.5 7.812500000000001
 37.50000000000001 14.625 0
 37.50000000000001 14.625 1.953125
 37.50000000000001 14.625 3.90625
 37.50000000000001 14.625 5.859375000000001
 37.50000000000001 14.625 7.812500000000001
 37.50000000000001 19.5 0
 37.50000000000001 19.5 1.953125
 37.50000000000001 19.5 3.90625
 37.50000000000001 19.5 5.859375000000001
 37.50000000000001 19.5 7.812500000000001
 31.25000000000001 14.625 9.765625000000002
 31.25000000000001 14.625 11.71875
 31.25000000000001 14.625 13.671875
 31.25000000000001 14.625 15.625
 31.25000000000001 19.5 9.765625000000002
 31.25000000000001 19.5 11.71875
 31.25000000000001 19.5 13.671875
 31.25000000000001 19.5 15.625
 37.50000000000001 14.625 9.765625000000002
 37.50000000000001 14.625 11.71875
 37.50000000000001 14.625 13.671875
 37.50000000000001 14.625 15.625
 37.50000000000001 19.5 9.765625000000002
 37.50000000000001 19.5 11.71875
 37.50000000000001 19.5 13.671875
 37.50000000000001 19.5 15.625
 43.75000000000001 0 0
 43.75000000000001 4.875 0
 43.75000000000001 0 1.953125
 43.75000000000001 4.875 1.953125
 43.75000000000001 0 3.90625
 43.75000000000001 4.875 3.90625
 43.75000000000001 0 5.859375000000001
 43.75000000000001 4.875 5.859375000000001
 43.75000000000001 0 7.812500000000001
 43.75000000000001 4.875 7.812500000000001
 43.75000000000001 9.75 0
 43.75000000000001 9.75 1.953125
 43.75000000000001 9.75 3.90625
 43.75000000000001 9.75 5.859375000000001
 43.75000000000001 9.75 7.812500000000001
 50.00000000000001 0 0
 50.00000000000001 4.875 0
 50.00000000000001 0 1.953125
 50.00000000000001 4.875 1.953125
 50.00000000000001 0 3.90625
 50.00000000000001 4.875 3.90625
 50.00000000000001 0 5.859375000000001
 50.00000000000001 4.875 5.859375000000001
 50.00000000000001 0 7.812500000000001
 50.00000000000001 4.875 7.812500000000001
 50.00000000000001 9.75 0
 50.00000000000001 9.75 1.953125
 50.00000000000001 9.75 3.90625
 50.00000000000001 9.75 5.859375000000001
 50.00000000000001 9.75 7.812500000000001
 43.75000000000001 0 9.765625000000002
 43.75000000000001 4.875 9.765625000000002
 43.75000000000001 0 11.71875
 43.75000000000001 4.875 11.71875
 43.75000000000001 0 13.671875
 43.75000000000001 4.875 13.671875
 43.75000000000001 0 15.625
 43.75000000000001 4.875 15.625
 43.75000000000001 9.75 9.765625000000002
 43.75000000000001 9.75 11.71875
 43.75000000000001 9.75 13.671875
 43.75000000000001 9.75 15.625
 50.00000000000001 0 9.765625000000002
 50.00000000000001 4.875 9.765625000000002
 50.00000000000001 0 11.71875
 50.00000000000001 4.875 11.71875
 50.00000000000001 0 13.671875
 50.00000000000001 4.875 13.671875
 50.00000000000001 0 15.625
 50.00000000000001 4.875 15.625
 50.00000000000001 9.75 9.765625000000002
 50.00000000000001 9.75 11.71875
 50.00000000000001 9.75 13.671875
 50.00000000000001 9.75 15.625
 43.75000000000001 14.625 0
 43.75000000000001 14.625 1.953125
 43.75000000000001 14.625 3.90625
 43.75000000000001 14.625 5.859375000000001
 43.75000000000001 14.625 7.812500000000001
 43.75000000000001 19.5 0
 43.75000000000001 19.5 1.953125
 43.75000000000001 19.5 3.90625
 43.75000000000001 19.5 5.859375000000001
 43.75000000000001 19.5 7.812500000000001
 50.00000000000001 14.625 0
 50.00000000000001 14.625 1.953125
 50.00000000000001 14.625 3.90625
 50.00000000000001 14.625 5.859375000000001
 50.00000000000001 14.625 7.812500000000001
 50.00000000000001 19.5 0
 50.00000000000001 19.5 1.953125
 50.00000000000001 19.5 3.90625
 50.00000000000001 19.5 5.859375000000001
 50.00000000000001 19.5 7.812500000000001
 43.75000000000001 14.625 9.765625000000002
 43.75000000000001 14.625 11.71875
 43.75000000000001 14.625 13.671875
 43.75000000000001 14.625 15.625
 43.75000000000001 19.5 9.765625000000002
 43.75000000000001 19.5 11.71875
 43.75000000000001 19.5 13.671875
 43.75000000000001 19.5 15.625
 50.00000000000001 14.625 9.765625000000002
 50.00000000000001 14.625 11.71875
 50.00000000000001 14.625 13.671875
 50.00000000000001 14.625 15.625
 50.00000000000001 19.5 9.765625000000002
 50.00000000000001 19.5 11.71875
 50.00000000000001 19.5 13.671875
 50.00000000000001 19.5 15.625
 31.25000000000001 0 17.578125
 31.25000000000001 4.875 17.578125
 31.25000000000001 0 19.53125
 31.25000000000001 4.875 19.53125
 31.25000000000001 0 21.484375
 31.25000000000001 4.875 21.484375
 31.25000000000001 0 23.4375
 31.25000000000001 4.875 23.4375
 31.25000000000001 9.75 17.578125
 31.25000000000001 9.75 19.53125
 31.25000000000001 9.75 21.484375
 31.25000000000001 9.75 23.4375
 37.50000000000001 0 17.578125
 37.50000000000001 4.875 17.578125
 37.50000000000001 0 19.53125
 37.50000000000001 4.875 19.53125
 37.50000000000001 0 21.484375
 37.50000000000001 4.875 21.484375
 37.50000000000001 0 23.4375
 37.50000000000001 4.875 23.4375
 37.50000000000001 9.75 17.578125
 37.50000000000001 9.75 19.53125
 37.50000000000001 9.75 21.484375
 37.50000000000001 9.75 23.4375
 31.25000000000001 0 25.390625
 31.25000000000001 4.875 25.390625
 31.25000000000001 0 27.34375
 31.25000000000001 4.875 27.34375
 31.25000000000001 0 29.296875
 31.25000000000001 4.875 29.296875
 31.25000000000001 0 31.25
 31.25000000000001 4.875 31.25
 31.25000000000001 9.75 25.390625
 31.25000000000001 9.75 27.34375
 31.25000000000001 9.75 29.296875
 31.25000000000001 9.75 31.25
 37.50000000000001 0 25.390625
 37.50000000000001 4.875 25.390625
 37.50000000000001 0 27.34375
 37.50000000000001 4.875 27.34375
 37.50000000000001 0 29.296875
 37.50000000000001 4.875 29.296875
 37.50000000000001 0 31.25
 37.50000000000001 4.875 31.25
 37.50000000000001 9.75 25.390625
 37.50000000000001 9.75 27.34375
 37.50000000000001 9.75 29.296875
 37.50000000000001 9.75 31.25
 31.25000000000001 14.625 17.578125
 31.25000000000001 14.625 19.53125
 31.25000000000001 14.625 21.484375
 31.25000000000001 14.625 23.4375
 31.25000000000001 19.5 17.578125
 31.25000000000001 19.5 19.53125
 31.25000000000001 19.5 21.484375
 31.25000000000001 19.5 23.4375
 37.50000000000001 14.625 17.578125
 37.50000000000001 14.625 19.53125
 37.50000000000001 14.625 21.484375
 37.50000000000001 14.625 23.4375
 37.50000000000001 19.5 17.578125
 37.50000000000001 19.5 19.53125
 37.50000000000001 19.5 21.484375
 37.50000000000001 19.5 23.4375
 31.25000000000001 14.625 25.390625
 31.25000000000001 14.625 27.34375
 31.25000000000001 14.625 29.296875
 31.25000000000001 14.625 31.25
 31.25000000000001 19.5 25.390625
 31.25000000000001 19.5 27.34375
 31.25000000000001 19.5 29.296875
 31.25000000000001 19.5 31.25
 37.50000000000001 14.625 25.390625
 37.50000000000001 14.625 27.34375