DF-ISE text

Info {
  version = 1.0
  type    = dataset
  dimension   = 3
  nb_vertices = 12390
  nb_edges    = 46221
  nb_faces    = 55828
  nb_elements = 23389
  nb_regions  = 11
  datasets    = [ "ElectrostaticPotential" "ContactExternalVoltage" "ContactCurrentFlux" "ContactCharge" "eQuasiFermiPotential" "hQuasiFermiPotential" "QuasiFermiPotential" "LatticeTemperature" ]
  functions   = [ ElectrostaticPotential ContactExternalVoltage ContactCurrentFlux ContactCharge eQuasiFermiPotential hQuasiFermiPotential QuasiFermiPotential LatticeTemperature ]
}

Data {

  Dataset ("ElectrostaticPotential") {
    function  = ElectrostaticPotential
    type      = scalar
    dimension = 1
    location  = vertex
    validity  = [ "substrate" ]
    Values (12390) {
 0.0000000000000000e+00 2.2679735939343157e-03 0.0000000000000000e+00 0.0000000000000000e+00 2.2564852862180357e-03 2.2678444243894543e-03 0.0000000000000000e+00 2.2563576406064456e-03 0.0000000000000000e+00 2.2674618907842004e-03
 0.0000000000000000e+00 2.2559796200424405e-03 4.5460499459615642e-03 4.5228852284476054e-03 4.5457776183861105e-03 4.5226161424604377e-03 4.5449711277883676e-03 4.5218192515830823e-03 0.0000000000000000e+00 2.2668407253235239e-03
 0.0000000000000000e+00 2.2553657827430510e-03 2.2660048464105131e-03 0.0000000000000000e+00 0.0000000000000000e+00 2.2545397646648643e-03 4.5436615432688440e-03 4.5205252546600717e-03 4.5187839911498238e-03 4.5418993053196067e-03
 0.0000000000000000e+00 2.2224591400371624e-03 0.0000000000000000e+00 2.2223359608509572e-03 0.0000000000000000e+00 2.2219711673531770e-03 4.4542812244735422e-03 4.4540216380399723e-03 4.4532528793837763e-03 0.0000000000000000e+00
 2.2213788078356057e-03 0.0000000000000000e+00 2.2205816904570064e-03 4.4520045623228392e-03 4.4503247649972889e-03 6.8445580227309913e-03 6.8093345240922663e-03 6.8441130132484871e-03 6.8088948865093445e-03 6.8427951394443897e-03
 6.8075929210149860e-03 9.1742921965047557e-03 9.1264203729332655e-03 9.1736261744519345e-03 9.1257625386043390e-03 9.1716538043362054e-03 9.1238144151797387e-03 6.8406551978870455e-03 6.8054788101254210e-03 6.8377756518739662e-03
 6.8026340204336254e-03 9.1684511713399502e-03 9.1206511508422385e-03 9.1163947312782323e-03 9.1641417818631981e-03 6.7050318079465380e-03 6.7046079098347523e-03 6.7033525551221827e-03 8.9846922877499184e-03 8.9840584367487965e-03
 8.9821813362944650e-03 6.7013141272046122e-03 6.6985711724103980e-03 8.9791333899723394e-03 8.9750321290874620e-03 0.0000000000000000e+00 0.0000000000000000e+00 4.5166625087591575e-03 4.5397522700546056e-03 0.0000000000000000e+00
 4.5373030810645391e-03 0.0000000000000000e+00 4.5142424667263268e-03 0.0000000000000000e+00 4.5346459730203036e-03 0.0000000000000000e+00 4.5116169776136632e-03 0.0000000000000000e+00 4.5318831329789261e-03 0.0000000000000000e+00
 4.5088870120410561e-03 0.0000000000000000e+00 4.4482781660854899e-03 0.0000000000000000e+00 4.4459435401822739e-03 0.0000000000000000e+00 4.4434107115001670e-03 0.0000000000000000e+00 4.4407770858636330e-03 9.1112092272172800e-03
 9.1588917514318514e-03 9.1529033434461868e-03 9.1052944131638832e-03 9.1464071189318562e-03 9.0988780141953492e-03 9.1396530107851395e-03 9.0922068903741896e-03 8.9700356348623375e-03 8.9643363914395438e-03 8.9581538169327055e-03
 8.9517257705263743e-03 0.0000000000000000e+00 2.1671821489682051e-03 0.0000000000000000e+00 2.1670660724421192e-03 0.0000000000000000e+00 2.1667223130812960e-03 4.3428472805130125e-03 4.3426027976806421e-03 4.3418787672396264e-03
 0.0000000000000000e+00 2.1661641083070907e-03 0.0000000000000000e+00 2.1654129499296382e-03 4.3407030779616836e-03 4.3391210077165891e-03 0.0000000000000000e+00 2.0927072887303136e-03 0.0000000000000000e+00 2.0926004710912923e-03
 0.0000000000000000e+00 2.0922841314408476e-03 4.1927395680706721e-03 4.1925147711583703e-03 4.1918490391958689e-03 0.0000000000000000e+00 2.0917704502387844e-03 0.0000000000000000e+00 2.0910792034352873e-03 4.1907680127103233e-03
 4.1893133199634525e-03 6.5356557521287408e-03 6.5352568698280947e-03 6.5340755968418289e-03 8.7546290185469781e-03 8.7540332668058322e-03 8.7522689915741029e-03 6.5321574572224823e-03 6.5295763560993024e-03 8.7494042366427962e-03
 8.7455494574960272e-03 6.3075751379098391e-03 6.3072088466041183e-03 6.3061240885749171e-03 8.4449802919232923e-03 8.4444341498321959e-03 8.4428167863041075e-03 6.3043626629884029e-03 6.3019924287978793e-03 8.4401905687168967e-03
 8.4366567398060539e-03 0.0000000000000000e+00 4.3371934687084293e-03 0.0000000000000000e+00 4.3349946492559190e-03 0.0000000000000000e+00 4.3326091453980437e-03 0.0000000000000000e+00 4.3301286952055588e-03 0.0000000000000000e+00
 4.1875409642358813e-03 0.0000000000000000e+00 4.1855191563707674e-03 0.0000000000000000e+00 4.1833256782037110e-03 0.0000000000000000e+00 4.1810448805283361e-03 8.7408532209097903e-03 8.7354964300446637e-03 8.7296853069884339e-03
 8.7236434124150167e-03 8.4323514783155931e-03 8.4274406084131216e-03 8.4221131699483386e-03 8.4165741053775674e-03 1.1546778795999203e-02 1.1485441173451207e-02 1.1545819250607993e-02 1.1484493680064321e-02 1.1542977679510246e-02
 1.1481687798339581e-02 1.3974587227913062e-02 1.3898707992873346e-02 1.3973229367917697e-02 1.3897367599396464e-02 1.3969208326494701e-02 1.3893398279677633e-02 1.1538363824434978e-02 1.1477131888552726e-02 1.1532155803604281e-02
 1.1471001827267126e-02 1.3962679645646153e-02 1.3886953569229765e-02 1.3878282625431096e-02 1.3953895737880292e-02 1.1303896237218331e-02 1.1302984034369993e-02 1.1300282657869840e-02 1.3674202288629004e-02 1.3672913020597805e-02
 1.3669095093117032e-02 1.1295896422890722e-02 1.1289994642073751e-02 1.3662896168621317e-02 1.3654555876583787e-02 1.9038139803122949e-02 1.8929048109551955e-02 1.9035538754346153e-02 1.8926482132867944e-02 1.9027836690702214e-02
 1.8918883916406615e-02 1.9015332802628737e-02 1.8906548599207235e-02 1.8998512398295989e-02 1.8889954920748013e-02 1.8606562470606037e-02 1.8604099077588979e-02 1.8596804607457579e-02 1.8584962348742164e-02 1.8569031827305627e-02
 1.3867720424431521e-02 1.3943195953708751e-02 1.3930993267059428e-02 1.3855674619748364e-02 1.3917758132273845e-02 1.3842609608784695e-02 1.3904000174751041e-02 1.3829028460506378e-02 1.3644396389204427e-02 1.3632809786914054e-02
 1.3620242738163171e-02 1.3607179120898713e-02 1.8978027518414646e-02 1.8869746102093465e-02 1.8954671014673182e-02 1.8846704279610889e-02 1.8929345221199399e-02 1.8821719604474714e-02 1.8903026554769230e-02 1.8795755324739007e-02
 1.8549630466648551e-02 1.8527509060940524e-02 1.8503522126656038e-02 1.8478594394164535e-02 1.1009355302379533e-02 1.1008499122640165e-02 1.1005963646450069e-02 1.3310214863498876e-02 1.3309006688453308e-02 1.3305428892967446e-02
 1.1001846767747490e-02 1.0996307379491761e-02 1.3299619824219556e-02 1.3291803999466724e-02 1.0613212450885886e-02 1.0612429149262683e-02 1.0610109486166981e-02 1.2821158427152491e-02 1.2820055609858541e-02 1.2816789799566250e-02
 1.0606343003346522e-02 1.0601275040575462e-02 1.2811487242388698e-02 1.2804352823669677e-02 1.8084669329605434e-02 1.8082368368042182e-02 1.8075554851207317e-02 1.8064493303347084e-02 1.8049612827227855e-02 1.7385438940258624e-02
 1.7383348299002802e-02 1.7377157533625655e-02 1.7367106875020143e-02 1.7353586037902987e-02 1.3282283282438741e-02 1.3271425052756376e-02 1.3259647858340875e-02 1.3247405137262072e-02 1.2795662024394522e-02 1.2785750134564719e-02
 1.2774999168758402e-02 1.2763823017195379e-02 1.8031489998224164e-02 1.8010825983060086e-02 1.7988418874106217e-02 1.7965132412803210e-02 1.7337118711563296e-02 1.7318341808477695e-02 1.7297980364773386e-02 1.7276819152619659e-02
 0.0000000000000000e+00 4.5291207618589902e-03 0.0000000000000000e+00 4.5061575071118666e-03 0.0000000000000000e+00 4.5264649891900814e-03 0.0000000000000000e+00 4.5035333298007142e-03 0.0000000000000000e+00 4.5240177987305417e-03
 0.0000000000000000e+00 4.5011152510176979e-03 0.0000000000000000e+00 4.5218731208932121e-03 0.0000000000000000e+00 4.4989960844382636e-03 0.0000000000000000e+00 4.4381438967217059e-03 0.0000000000000000e+00 4.4356123110711127e-03
 0.0000000000000000e+00 4.4332795454961266e-03 0.0000000000000000e+00 4.4312351409912633e-03 9.1329006754778293e-03 9.0855375073268067e-03 9.1264094995834252e-03 9.0791260656630131e-03 9.1204286473926411e-03 9.0732186707416420e-03
 9.1151875296308933e-03 9.0680419181454319e-03 8.9452993712501126e-03 8.9391214873732628e-03 8.9334292639754488e-03 8.9284410504361054e-03 0.0000000000000000e+00 4.5201132403718397e-03 0.0000000000000000e+00 4.4972571367394376e-03
 0.0000000000000000e+00 4.5188056543833113e-03 0.0000000000000000e+00 4.4959651030667021e-03 0.0000000000000000e+00 4.5180004991613645e-03 0.0000000000000000e+00 4.4951695239913193e-03 0.0000000000000000e+00 4.5177286405075449e-03
 0.0000000000000000e+00 4.4949008986477617e-03 0.0000000000000000e+00 4.4295575380728239e-03 0.0000000000000000e+00 4.4283110813405479e-03 0.0000000000000000e+00 4.4275435657162949e-03 0.0000000000000000e+00 4.4272844157775106e-03
 9.1108870528257471e-03 9.0637942500481506e-03 9.1076919756292209e-03 9.0606384048474518e-03 9.1057246541382704e-03 9.0586952387323744e-03 9.1050604049268662e-03 9.0580391451792093e-03 8.9243480702388724e-03 8.9213071439462263e-03
 8.9194347341263799e-03 8.9188025302571906e-03 0.0000000000000000e+00 4.3276486435356301e-03 0.0000000000000000e+00 4.3252642745740090e-03 0.0000000000000000e+00 4.3230671536138680e-03 0.0000000000000000e+00 4.3211416181141975e-03
 0.0000000000000000e+00 4.1787644329305835e-03 0.0000000000000000e+00 4.1765719517002720e-03 0.0000000000000000e+00 4.1745516358565014e-03 0.0000000000000000e+00 4.1727810400882014e-03 8.7176030174595728e-03 8.7117961649543722e-03
 8.7064457654214642e-03 8.7017570679270746e-03 8.4110363517526186e-03 8.4057126465459202e-03 8.4008073638596782e-03 8.3965086929411476e-03 0.0000000000000000e+00 4.3195615513777433e-03 0.0000000000000000e+00 4.3183875605925306e-03
 0.0000000000000000e+00 4.3176646650481343e-03 0.0000000000000000e+00 4.3174205807384718e-03 0.0000000000000000e+00 4.1713281073007084e-03 0.0000000000000000e+00 4.1702485728367629e-03 0.0000000000000000e+00 4.1695838378112641e-03
 0.0000000000000000e+00 4.1693593909766912e-03 8.6979098278737385e-03 8.6950514642784773e-03 8.6932914596015987e-03 8.6926972074800150e-03 8.3929814546033470e-03 8.3903608242350495e-03 8.3887471939677327e-03 8.3882023628235707e-03
 1.3890248453840013e-02 1.3815453433121617e-02 1.3877031079426535e-02 1.3802405852992404e-02 1.3864854973064620e-02 1.3790386135408594e-02 1.3854186542498696e-02 1.3779854706259503e-02 1.3594121286011809e-02 1.3581570704083170e-02
 1.3570008746145348e-02 1.3559878328779695e-02 1.8876727514117755e-02 1.8769810299736386e-02 1.8851457610163037e-02 1.8744880457470664e-02 1.8828184751081022e-02 1.8721920698260786e-02 1.8807798536932124e-02 1.8701808679965268e-02
 1.8453684828773340e-02 1.8429749630042080e-02 1.8407705652140807e-02 1.8388395623932997e-02 1.3845433988358989e-02 1.3771214534331678e-02 1.3838931887847418e-02 1.3764795911032307e-02 1.3834928606846092e-02 1.3760844022197087e-02
 1.3833576983483038e-02 1.3759509749634117e-02 1.3551567106775261e-02 1.3545392826678909e-02 1.3541591366067198e-02 1.3540307880432950e-02 1.8791076798473364e-02 1.8685311802005996e-02 1.8778656555401056e-02 1.8673058548419542e-02
 1.8771010381617929e-02 1.8665515165168924e-02 1.8768428958761390e-02 1.8662968443358945e-02 1.8372556435081309e-02 1.8360791604499990e-02 1.8353548870249183e-02 1.8351103644468039e-02 1.3235167664024217e-02 1.3223405414198888e-02
 1.3212569550686160e-02 1.3203075216369391e-02 1.2752651428541747e-02 1.2741913456804451e-02 1.2732021013980086e-02 1.2723353154022529e-02 1.7941862396297852e-02 1.7919502118190329e-02 1.7898908190409707e-02 1.7880868035218996e-02
 1.7255672175239638e-02 1.7235351268758258e-02 1.7216635033961668e-02 1.7200239270822374e-02 1.3195285774344426e-02 1.3189499071806374e-02 1.3185936220950887e-02 1.3184733293762919e-02 1.2716241674632697e-02 1.2710958564488554e-02
 1.2707705748293274e-02 1.2706607493920295e-02 1.7866070233030197e-02 1.7855078772836971e-02 1.7848312087132022e-02 1.7846027570483879e-02 1.7186789996986942e-02 1.7176800006866794e-02 1.7170649778908954e-02 1.7168573372508187e-02
 0.0000000000000000e+00 2.0017372825441885e-03 0.0000000000000000e+00 2.0016412610285128e-03 0.0000000000000000e+00 2.0013568935862702e-03 4.0094075445912276e-03 4.0092057156922616e-03 4.0086080020191490e-03 0.0000000000000000e+00
 2.0008951283788288e-03 0.0000000000000000e+00 2.0002737408307825e-03 4.0076374213596768e-03 4.0063313443861569e-03 1.8975252085979349e-03 0.0000000000000000e+00 0.0000000000000000e+00 1.8974407650710760e-03 0.0000000000000000e+00
 1.8971906853965403e-03 3.7992523467851444e-03 3.7990753431744813e-03 3.7985511482116216e-03 0.0000000000000000e+00 1.8967845964793274e-03 0.0000000000000000e+00 1.8962381287537795e-03 3.7976999454814265e-03 3.7965545046829922e-03
 6.0291331850349907e-03 6.0288048866318040e-03 6.0278326409918459e-03 8.0671159139869622e-03 8.0666276268723820e-03 8.0651815927715639e-03 6.0262539056341108e-03 6.0241294921104215e-03 8.0628335603252464e-03 8.0596740299470719e-03
 5.7103513901758090e-03 5.7100638499967358e-03 5.7092123064071860e-03 7.6342927102714736e-03 7.6338669866029508e-03 7.6326062260937654e-03 5.7078295604584836e-03 5.7059688650762672e-03 7.6305590219255121e-03 7.6278042607461592e-03
 0.0000000000000000e+00 4.0047400475731456e-03 0.0000000000000000e+00 4.0029247681954939e-03 0.0000000000000000e+00 4.0009553381218461e-03 0.0000000000000000e+00 3.9989074893010852e-03 0.0000000000000000e+00 3.7951589133961064e-03
 0.0000000000000000e+00 3.7935668723144025e-03 0.0000000000000000e+00 3.7918396210617502e-03 0.0000000000000000e+00 3.7900435759016323e-03 8.0558247352133325e-03 8.0514339167219954e-03 8.0466705773812371e-03 8.0417179472039562e-03
 7.6244480584823932e-03 7.6206196439302671e-03 7.6164663541899496e-03 7.6121479401219652e-03 0.0000000000000000e+00 0.0000000000000000e+00 3.5684951511289176e-03 3.5683442574057614e-03 0.0000000000000000e+00 3.5678973857487827e-03
 0.0000000000000000e+00 3.5671717397994626e-03 0.0000000000000000e+00 3.5661952515335374e-03 0.0000000000000000e+00 3.3260364530602457e-03 0.0000000000000000e+00 3.3259101162783121e-03 0.0000000000000000e+00 3.3255359690371007e-03
 0.0000000000000000e+00 3.3249284125360596e-03 0.0000000000000000e+00 3.3241108291432678e-03 7.1600397328492396e-03 7.1596794281411722e-03 7.1586123985804022e-03 7.1568797584411351e-03 7.1545482550839585e-03 6.6648368087441241e-03
 6.6645371018515366e-03 6.6636495267811333e-03 6.6622082723846697e-03 6.6602688447175047e-03 0.0000000000000000e+00 3.5650055008669399e-03 0.0000000000000000e+00 3.5636482632479573e-03 0.0000000000000000e+00 3.5621757423071085e-03
 0.0000000000000000e+00 3.5606445567368601e-03 0.0000000000000000e+00 3.3231146785936846e-03 0.0000000000000000e+00 3.3219782828430057e-03 0.0000000000000000e+00 3.3207453472152734e-03 0.0000000000000000e+00 3.3194632756147380e-03
 7.1517076790261567e-03 7.1484673840404179e-03 7.1449520554900591e-03 7.1412968939847362e-03 6.6579059157502885e-03 6.6552104322919626e-03 6.6522860995065127e-03 6.6492453774309630e-03 1.0130182016891937e-02 1.0129483608548635e-02
 1.0127415339616084e-02 1.2225470329242157e-02 1.2224490152488183e-02 1.2221587506438182e-02 1.0124057024643080e-02 1.0119538218635694e-02 1.2216874554702351e-02 1.2210533335545441e-02 9.5774378042986375e-03 9.5768307128994406e-03
 9.5750328616805193e-03 1.1543641083975322e-02 1.1542793881369392e-02 1.1540285001599232e-02 9.5721136052633170e-03 9.5681855242826866e-03 1.1536211344992185e-02 1.1530730186062769e-02 1.6537292246196853e-02 1.6535444843205301e-02
 1.6529974301988794e-02 1.6521092768308789e-02 1.6509144419239338e-02 1.5572899776485757e-02 1.5571312287010740e-02 1.5566611352388482e-02 1.5558979128378886e-02 1.5548711162274787e-02 1.2202808625229013e-02 1.2193998365382661e-02
 1.2184442047739380e-02 1.2174507527905760e-02 1.1524053018528437e-02 1.1516437297021688e-02 1.1508176412895390e-02 1.1499588309264615e-02 1.6494591797465059e-02 1.6477997519619370e-02 1.6460002141127777e-02 1.6441299106951340e-02
 1.5536204691191945e-02 1.5521942971868007e-02 1.5506476306415922e-02 1.5490400554897957e-02 1.0793801559871889e-02 1.0793094399439965e-02 1.0791000217534394e-02 1.0787599844323266e-02 1.0783024480693675e-02 1.0029147706650728e-02
 1.0028564130556463e-02 1.0026835917617740e-02 1.0024029735037555e-02 1.0020253801247419e-02 1.4527382372646863e-02 1.4526055639963967e-02 1.4522126819502885e-02 1.4515748009517793e-02 1.4507166012878589e-02 1.3439494104041846e-02
 1.3438412792710812e-02 1.3435210690088198e-02 1.3430011640275588e-02 1.3423016620033801e-02 1.0777450575841228e-02 1.0771092951701176e-02 1.0764196452952060e-02 1.0757026457911770e-02 1.0015653669346689e-02 1.0010406565509035e-02
 1.0004714510344032e-02 9.9987964979272679e-03 1.4496712597079853e-02 1.4484791443992822e-02 1.4471862337069111e-02 1.4458423239505108e-02 1.3414495834808518e-02 1.3404778122380459e-02 1.3394238103966213e-02 1.3383281608938981e-02
 0.0000000000000000e+00 3.9968599361513354e-03 0.0000000000000000e+00 3.9948913480775030e-03 0.0000000000000000e+00 3.9930773288416608e-03 0.0000000000000000e+00 3.9914875184673135e-03 0.0000000000000000e+00 3.7882477714734184e-03
 0.0000000000000000e+00 3.7865212057672263e-03 0.0000000000000000e+00 3.7849301906783131e-03 0.0000000000000000e+00 3.7835358096324498e-03 8.0367664149175993e-03 8.0320062021057813e-03 8.0276200627959950e-03 8.0237762875337276e-03
 7.6078304056024114e-03 7.6036796206041240e-03 7.5998549546633853e-03 7.5965031741882906e-03 0.0000000000000000e+00 3.9901829279325122e-03 0.0000000000000000e+00 3.9892136074149822e-03 0.0000000000000000e+00 3.9886167357418177e-03
 0.0000000000000000e+00 3.9884152025139192e-03 0.0000000000000000e+00 3.7823915790750453e-03 0.0000000000000000e+00 3.7815414023376617e-03 0.0000000000000000e+00 3.7810178929212849e-03 0.0000000000000000e+00 3.7808411300425350e-03
 8.0206222766275662e-03 8.0182789233641024e-03 8.0168360157935291e-03 8.0163488265704123e-03 7.5937528347976638e-03 7.5917093792409324e-03 7.5904511234739106e-03 7.5900262793538740e-03 0.0000000000000000e+00 3.5591135598241268e-03
 0.0000000000000000e+00 3.5576415761344226e-03 0.0000000000000000e+00 3.5562851425685886e-03 0.0000000000000000e+00 3.5550963403473334e-03 0.0000000000000000e+00 3.3181813453414736e-03 0.0000000000000000e+00 3.3169488121797511e-03
 0.0000000000000000e+00 3.3158130187620049e-03 0.0000000000000000e+00 3.3148175787125343e-03 7.1376424032130563e-03 7.1341289847504782e-03 7.1308915484130063e-03 7.1280543443605791e-03 6.6462051471082957e-03 6.6432822147165322e-03
 6.6405888270953239e-03 6.6382283703363314e-03 0.0000000000000000e+00 3.5541208005267322e-03 0.0000000000000000e+00 3.5533959586305222e-03 0.0000000000000000e+00 3.5529496242246487e-03 0.0000000000000000e+00 3.5527989191589918e-03
 0.0000000000000000e+00 3.3140007058198302e-03 0.0000000000000000e+00 3.3133937516516580e-03 0.0000000000000000e+00 3.3130200068763930e-03 0.0000000000000000e+00 3.3128938114217045e-03 7.1257262130085958e-03 7.1239964315171550e-03
 7.1229313120437258e-03 7.1225716780691211e-03 6.6362914148771542e-03 6.6348522563172384e-03 6.6339660816399533e-03 6.6336668665000166e-03 1.2164576796161026e-02 1.2155031266083322e-02 1.2146237150972837e-02 1.2138531484675610e-02
 1.1491003189548089e-02 1.1482750802890618e-02 1.1475147798744666e-02 1.1468485632360196e-02 1.6422607816687293e-02 1.6404645882035732e-02 1.6388101656453546e-02 1.6373608075380696e-02 1.5474334012103462e-02 1.5458893570876075e-02
 1.5444671098875188e-02 1.5432210923162498e-02 1.2132209309543123e-02 1.2127512502555768e-02 1.2124620644083950e-02 1.2123644255424093e-02 1.1463019474580664e-02 1.1458958535334464e-02 1.1456458153033188e-02 1.1455613934341524e-02
 1.6361718767047031e-02 1.6352887285713501e-02 1.6347450188420012e-02 1.6345614529375226e-02 1.5421989252424674e-02 1.5414396275728798e-02 1.5409721565321924e-02 1.5408143284566515e-02 1.0749858627135629e-02 1.0742968291688923e-02
 1.0736619891581542e-02 1.0731056867215618e-02 9.9928800417920932e-03 9.9871924185416586e-03 9.9819519475316497e-03 9.9773596395826957e-03 1.4444990990505863e-02 1.4432081386640387e-02 1.4420189421931332e-02 1.4409770436154580e-02
 1.3372329960481776e-02 1.3361803743927500e-02 1.3352106687432230e-02 1.3343610267525010e-02 1.0726492384070524e-02 1.0723101234887188e-02 1.0721013216279144e-02 1.0720308220109350e-02 9.9735915297422938e-03 9.9707919799848221e-03
 9.9690681989557314e-03 9.9684861791410131e-03 1.4401222869518702e-02 1.4394873247866580e-02 1.4390963930418728e-02 1.4389644046281947e-02 1.3336639612584082e-02 1.3331461218662723e-02 1.3328272917858546e-02 1.3327196453080335e-02
 2.4513580179342697e-02 2.4362685558526713e-02 2.4508585562199620e-02 2.4357761965697187e-02 2.4493797388270015e-02 2.4343184063400435e-02 2.4469794592422836e-02 2.4319522501351269e-02 2.4437515476192516e-02 2.4287702162076576e-02
 2.3917130177033750e-02 2.3912414230548931e-02 2.3898451076012898e-02 2.3875787136842661e-02 2.3845308058291652e-02 3.0587347858426459e-02 3.0381478965568285e-02 3.0577722456315081e-02 3.0371998144837362e-02 3.0549228650794413e-02
 3.0343932284217459e-02 3.0502996997850210e-02 3.0298394802726811e-02 3.0440857222343687e-02 3.0237187716707054e-02 2.9774388891568970e-02 2.9765330808373923e-02 2.9738516195576332e-02 2.9695008342058703e-02 2.9636528213936995e-02
 2.4398219200209442e-02 2.4248964216146633e-02 2.4353434522749802e-02 2.4204815607332789e-02 2.4304898200745634e-02 2.4156968346750438e-02 2.4254485859089150e-02 2.4107271379058770e-02 2.3808202409259776e-02 2.3765913351551239e-02
 2.3720080546400787e-02 2.3672474936104294e-02 3.0365259660996610e-02 3.0162724307782635e-02 3.0279171463391878e-02 3.0077926935154480e-02 3.0185953054783242e-02 2.9986105404675157e-02 3.0089221081445836e-02 2.9890822013519305e-02
 2.9565380711507997e-02 2.9484357200927312e-02 2.9396619464470065e-02 2.9305570888875102e-02 2.3197728830319349e-02 2.3193341242627129e-02 2.3180350208835673e-02 2.3159263835545355e-02 2.3130905710864940e-02 2.2237302888050797e-02
 2.2233339255135813e-02 2.2221603358786705e-02 2.2202553835124882e-02 2.2176934150786847e-02 2.8796807526631611e-02 2.8788417678064900e-02 2.8763580933780127e-02 2.8723281288571108e-02 2.8669111516078583e-02 2.7497199306269371e-02
 2.7489670653257945e-02 2.7467382899123809e-02 2.7431217813963481e-02 2.7382602914776608e-02 2.3096381212159841e-02 2.3057032631479922e-02 2.3014385215295172e-02 2.2970086557952747e-02 2.2145742274993767e-02 2.2110190266879787e-02
 2.2071655651105426e-02 2.2031626765060385e-02 2.8603205115041320e-02 2.8528146318862985e-02 2.8446862884420165e-02 2.8362507003623191e-02 2.7323450754857492e-02 2.7256078582281532e-02 2.7183112529511794e-02 2.7107381062377058e-02
 3.7534998844605857e-02 3.7253908978189677e-02 3.7516351589236885e-02 3.7235557336559214e-02 3.7461168470860139e-02 3.7181248880502636e-02 3.7371689620798981e-02 3.7093187801792597e-02 3.7251531697594924e-02 3.6974932806068929e-02
 3.6426117194215575e-02 3.6408630780962098e-02 3.6356882317659059e-02 3.6272970676727766e-02 3.6160284759622900e-02 4.5788575424871331e-02 4.5400770219486346e-02 4.5752165989199609e-02 4.5364967665860088e-02 4.5644479326166700e-02
 4.5259075587996141e-02 4.5470058040194564e-02 4.5087559847794584e-02 4.5236205898652723e-02 4.4857600980173280e-02 4.4259954551053200e-02 4.4225933008995001e-02 4.4125307252330347e-02 4.3962317282390952e-02 4.3743781073998386e-02
 3.7105520927443326e-02 3.6831232923873483e-02 3.6939475111976948e-02 3.6667813117987766e-02 3.6759948186094654e-02 3.6491123030485392e-02 3.6573952125214519e-02 3.6308063410686958e-02 3.6023347457203293e-02 3.5867611836752654e-02
 3.5699222190307696e-02 3.5524753722731672e-02 4.4952611023626236e-02 4.4578723958125961e-02 4.4630862786806808e-02 4.4262323485637245e-02 4.4283899145416063e-02 4.3921120887533943e-02 4.3925422634591219e-02 4.3568590115481795e-02
 4.3478743838075533e-02 4.3178028183510443e-02 4.2853719240625816e-02 4.2518620187677533e-02 3.5097011530375179e-02 3.5080894373154030e-02 3.5033197084471515e-02 3.4955851562139872e-02 3.4851977556439082e-02 3.3338520992625714e-02
 3.3324167918249201e-02 3.3281689861943242e-02 3.3212803311885065e-02 3.3120280851775083e-02 4.2433055719249629e-02 4.2401863460391681e-02 4.2309603109170889e-02 4.2160154267517555e-02 4.1959756699393294e-02 4.0027749972766903e-02
 4.0000211423968465e-02 3.9918753436210840e-02 3.9786788419868109e-02 3.9609806961450521e-02 3.4725739622597854e-02 3.4582160154995281e-02 3.4426899996023733e-02 3.4266019174514502e-02 3.3007824944788398e-02 3.2879902772487028e-02
 3.2741552130833781e-02 3.2598169346750826e-02 4.1716691086107253e-02 4.1440869248968906e-02 4.1143364603430044e-02 4.0835914902205096e-02 3.9395099836691608e-02 3.9151400581030386e-02 3.8888474997182315e-02 3.8616685202555824e-02
 2.4204138347366844e-02 2.4057637994569208e-02 2.4155786645625208e-02 2.4009971803857184e-02 2.4111278272557098e-02 2.3966094185898252e-02 2.4072307920833907e-02 2.3927675896485548e-02 2.3624929242066023e-02 2.3579267064207488e-02
 2.3537233368914737e-02 2.3500428941373722e-02 2.9992704304683534e-02 2.9795749632525639e-02 2.9900098725805849e-02 2.9704529009896459e-02 2.9814927697600722e-02 2.9620630964351677e-02 2.9740412019110520e-02 2.9547228391895629e-02
 2.9214720948749936e-02 2.9127548879985036e-02 2.9047371955818756e-02 2.8977223077918602e-02 2.4040354729976929e-02 2.3896175214842531e-02 2.4016628241209703e-02 2.3872784646339074e-02 2.4002024690231549e-02 2.3858387816603901e-02
 2.3997094904136571e-02 2.3853527808091381e-02 2.3470251085399577e-02 2.3447842511267213e-02 2.3434049986645604e-02 2.3429393957505412e-02 2.9679354135218917e-02 2.9487082151162507e-02 2.9634039672824356e-02 2.9442444018050441e-02
 2.9606158718195660e-02 2.9414979086586471e-02 2.9596748521427976e-02 2.9405709284846197e-02 2.8919741583046926e-02 2.8877080337003837e-02 2.8850831412968229e-02 2.8841971973973309e-02 2.2925841980327596e-02 2.2883348570344356e-02
 2.2844230476782496e-02 2.2809977857032183e-02 2.1991644438338731e-02 2.1953242412433790e-02 2.1917888839458659e-02 2.1886931034463337e-02 2.8278329910548395e-02 2.8197555622000631e-02 2.8123258820844408e-02 2.8058251261125506e-02
 2.7031802636328612e-02 2.6959272408740343e-02 2.6892552497591246e-02 2.6834169737203404e-02 2.2781891612258767e-02 2.2761035728385570e-02 2.2748198703095027e-02 2.2743865196072636e-02 2.1861545421579736e-02 2.1842694334642303e-02
 2.1831091029748458e-02 2.1827173956813828e-02 2.8004980337713748e-02 2.7965442706271271e-02 2.7941115126633904e-02 2.7932904073559379e-02 2.6786324242891121e-02 2.6750811432061285e-02 2.6728959516019005e-02 2.6721583909443652e-02
 3.6388670851933508e-02 3.6125704622518386e-02 3.6211179481489303e-02 3.5951010347436342e-02 3.6048180126077078e-02 3.5790577522577437e-02 3.5905762959523552e-02 3.5650401084588682e-02 3.5350944537428305e-02 3.5184432381004674e-02
 3.5031506660005519e-02 3.4897883920364914e-02 4.3569320567359779e-02 4.3218387779035895e-02 4.3229118854175484e-02 4.2883816092118492e-02 4.2917490807503011e-02 4.2577339736242122e-02 4.2645833939209753e-02 4.2310169447480242e-02
 4.2185711183852156e-02 4.1867639064610988e-02 4.1576257743352954e-02 4.1322231558922923e-02 3.5789198708592714e-02 3.5535669602686740e-02 3.5702766484502206e-02 3.5450595673183483e-02 3.5649619087731260e-02 3.5398283197970004e-02
 3.5631686688870533e-02 3.5380632457810091e-02 3.4788512636071550e-02 3.4707411063763259e-02 3.4657540259870667e-02 3.4640713199123381e-02 4.2423920340619169e-02 4.2091917860826042e-02 4.2259620541214973e-02 4.1930327561210977e-02
 4.2158697108650757e-02 4.1831067724157199e-02 4.2124662657889833e-02 4.1797594158732680e-02 4.1114706963886596e-02 4.0961052685113825e-02 4.0866665115022835e-02 4.0834834188308383e-02 3.4105730249332639e-02 3.3952155680209775e-02
 3.3811098909640756e-02 3.3687836754550234e-02 3.2455290159243907e-02 3.2318373647119772e-02 3.2192597823885394e-02 3.2082673745447536e-02 4.0530427196131105e-02 4.0238509924842111e-02 3.9971050432108544e-02 3.9737849298596709e-02
 3.8346554131038595e-02 3.8088352246169042e-02 3.7851722669323136e-02 3.7645355084331582e-02 3.3586938591091464e-02 3.3512115919151632e-02 3.3466104373857150e-02 3.3450579176620622e-02 3.1992683157648846e-02 3.1925943062375346e-02
 3.1884899241468555e-02 3.1871049807570537e-02 3.9547316731207684e-02 3.9406231492627078e-02 3.9319559778530078e-02 3.9290330039336567e-02 3.7476713526798842e-02 3.7351819061905711e-02 3.7275085649252332e-02 3.7249206187638530e-02
 2.1078016983731802e-02 2.1074541068289106e-02 2.1064249091600807e-02 2.1047542806642082e-02 2.1025073548495869e-02 1.9768011696784177e-02 1.9765052428244820e-02 1.9756290042212979e-02 1.9742066100378115e-02 1.9722934436753155e-02
 2.5937659210211430e-02 2.5931116951187869e-02 2.5911748774959675e-02 2.5880319427728168e-02 2.5838067235574119e-02 2.4188470782245567e-02 2.4182965371961841e-02 2.4166666187805504e-02 2.4140215178236741e-02 2.4104652107007841e-02
 2.0997715768790965e-02 2.0966531746726923e-02 2.0932729093992276e-02 2.0897612943759837e-02 1.9699638764356736e-02 1.9673082791654004e-02 1.9644294198902214e-02 1.9614384057672813e-02 2.5786651787041145e-02 2.5728084622578716e-02
 2.5664646461722181e-02 2.5598794994989144e-02 2.4061370995763994e-02 2.4012062337043779e-02 2.3958643957412359e-02 2.3903183832158673e-02 1.8357777775248354e-02 1.8355330569997965e-02 1.8348084240773617e-02 1.8336320794185047e-02
 1.8320497575890476e-02 1.6896621285635634e-02 1.6894653232063107e-02 1.6888825562874701e-02 1.6879364680903869e-02 1.6866637823620294e-02 2.2321991099952553e-02 2.2317501783450419e-02 2.2304210284517335e-02 2.2282638565329721e-02